12
Lattice="4.497479 0.0 0.0 -2.2487394999999992 3.894931066987034 0.0 0.0 0.0 7.322382" Properties=species:S:1:pos:R:3:force:R:3 #=T CELL(abcABC):=T 4.49748=T 7.32238=T 90.00000=T 120.00000=T Step:=T 10000=T Bead:=T 0=T positionsangstrom=T cellangstrom=T Polarizability="73.7410775164652 0.0501593796888682 0.742349377200874 0.048784177305521 75.3926334064902 1.34719158436926 0.744847291498868 1.34634195783848 57.4154244779007" energy=-8265.853358844077 pbc="T T T"
O       -0.41534000       2.72434000       0.45661600       0.72457300      -3.78386000       5.06063000
H       -0.27878800       2.73560000       1.44656000      -0.21749300      -1.87723000      -2.82576000
H       -0.38314900       4.39401000      -0.03495300       0.44932100       4.77025000      -1.94903000
O        2.37513000       1.19834000       4.09369000       0.52552400       0.53870600       1.96574000
H        3.82610000       1.98079000       3.59682000      -1.53532000      -0.57382400       0.62010900
H        2.35271000       1.19443000       5.10645000       1.55492000      -0.48356700      -3.42953000
O        0.12112000       2.58490000       3.32131000     -33.42940000      15.30450000     -13.96350000
H        1.01741000       2.13447000       3.58345000      33.15440000     -21.66480000      11.73700000
H        0.09538660       4.07922000       3.85297000       0.29723500       7.21242000       2.82551000
O        1.99415000       1.46254000       6.99958000      -4.72908000       1.58420000       1.67947000
H        3.16309000       2.22374000       7.49905000       1.53376000       0.39174800      -0.91725500
H        1.16867000       1.93908000       7.27615000       1.67158000      -1.41850000      -0.80339600
12
Lattice="4.497479 0.0 0.0 -2.2487394999999992 3.894931066987034 0.0 0.0 0.0 7.322382" Properties=species:S:1:pos:R:3:force:R:3 #=T CELL(abcABC):=T 4.49748=T 7.32238=T 90.00000=T 120.00000=T Step:=T 10900=T Bead:=T 0=T positionsangstrom=T cellangstrom=T Polarizability="73.2112720265723 -3.97132325525326 1.08112215171787 -3.98629368491257 71.6680519804748 1.33842579018337 1.07209356240865 1.33788812429312 61.7295199476404" energy=-8265.666000895444 pbc="T T T"
O       -0.10991000       2.53442000       0.33557000       0.40733600      -0.09135300      -0.87699300
H       -0.27177000       2.66664000       1.34333000      -0.26404000      -0.00291584       0.80034900
H       -0.08801060       4.19421000       0.06585400      -0.29832300      -1.09268000       0.46508100
O        2.16675000       1.41592000       3.99505000       1.41177000       0.64733200       1.98297000
H        3.68848000       2.12231000       3.56130000       0.35304600       0.73879800       0.17144000
H        2.15522000       1.31773000       5.01824000      -0.55589800       1.07966000      -0.69649900
O       -0.04931250       2.72097000       3.36292000       0.71726600      -1.84928000       0.02192650
H        0.82951500       2.30768000       3.70222000      -1.48205000       0.54479600      -0.13111700
H       -0.19328400       4.34999000       3.66305000      -0.20630800      -1.10436000      -1.30048000
O        2.07490000       1.30074000       7.18146000      -1.39947000       2.20553000      -0.44830500
H        3.56221000       2.04126000       7.40682000      -0.00850529      -0.29959900       0.19200800
H        1.16229000       1.65091000       7.50546000       1.32518000      -0.77593300      -0.18038000
12
Lattice="4.497479 0.0 0.0 -2.2487394999999992 3.894931066987034 0.0 0.0 0.0 7.322382" Properties=species:S:1:pos:R:3:force:R:3 #=T CELL(abcABC):=T 4.49748=T 7.32238=T 90.00000=T 120.00000=T Step:=T 11800=T Bead:=T 0=T positionsangstrom=T cellangstrom=T Polarizability="74.2046620262886 -2.31320736821077 1.51812994489713 -2.32420705760319 72.4602671470917 1.02448428713797 1.51562841401679 1.03140923823532 58.8287682394494" energy=-8265.723840401986 pbc="T T T"
O       -0.27144000       2.78644000       0.44415100      -1.92857000      -0.18494300      -0.23325400
H       -0.19965200       2.82717000       1.43914000       0.34728100      -0.15852000       0.59034800
H       -0.32668500       4.39787000       0.05539020       0.43785300       0.00699983      -0.10205600
O        2.24519000       1.19049000       4.03020000       0.75664900       1.18690000       0.30833100
H        3.72384000       1.99267000       3.49188000       0.86463500       0.69495100      -1.24475000
H        2.16272000       1.38609000       4.99808000      -0.34179800      -0.11774800       0.06459410
O        0.06145240       2.51449000       3.22650000      -1.90217000      -0.14518300       0.31689000
H        0.90109500       2.03920000       3.46413000       0.58196200      -0.17443000       0.60580700
H        0.01499940       4.03166000       3.76979000      -0.05251820      -1.26330000      -0.02438960
O        2.04708000       1.48056000       7.17310000       0.20593200      -0.04810030      -0.28056700
H        3.46195000       2.12416000       7.58556000       0.80429900      -0.05610020       0.11764700
H        1.10860000       1.85287000       7.47904000       0.22644000       0.25948100      -0.11859700
12
Lattice="4.497479 0.0 0.0 -2.2487394999999992 3.894931066987034 0.0 0.0 0.0 7.322382" Properties=species:S:1:pos:R:3:force:R:3 #=T CELL(abcABC):=T 4.49748=T 7.32238=T 90.00000=T 120.00000=T Step:=T 12700=T Bead:=T 0=T positionsangstrom=T cellangstrom=T Polarizability="70.7301503502396 -2.15175490774133 0.227876348965163 -2.15183665165316 68.9536654804164 2.11070067518378 0.225525200198447 2.1137892402495 62.3276014993612" energy=-8265.804558914764 pbc="T T T"
O        0.05468240       2.68345000       0.36176400       0.57462900       0.07455500       0.25600400
H        0.00394767       2.73387000       1.38845000       0.07061620      -0.15291700       0.02892220
H       -0.15576700       4.37111000       0.06192720      -0.21726700      -0.39397700       0.02663480
O        2.02443000       1.27704000       4.15714000       0.01272400      -1.35899000       0.89832600
H        3.48275000       2.08775000       3.65071000       0.04236660       0.33945700      -0.65281200
H        2.12279000       1.15751000       5.19128000      -0.17177100       0.21273500      -1.38445000
O       -0.19498100       2.60102000       3.30566000       0.83974500      -0.54527300       0.22914800
H        0.63141500       2.13025000       3.66323000      -0.63057300       0.36795400      -0.25302300
H       -0.22232200       4.19435000       3.83136000      -0.16884900       1.04688000       1.06130000
O        2.18918000       1.40391000       7.03106000       1.46872000      -1.08373000      -0.88205600
H        3.76520000       2.17473000       7.47569000      -0.05474280       0.44839500       0.12490600
H        1.36119000       1.90637000       7.31111000      -1.76560000       1.04492000       0.54710900
12
Lattice="4.497479 0.0 0.0 -2.2487394999999992 3.894931066987034 0.0 0.0 0.0 7.322382" Properties=species:S:1:pos:R:3:force:R:3 #=T CELL(abcABC):=T 4.49748=T 7.32238=T 90.00000=T 120.00000=T Step:=T 13600=T Bead:=T 0=T positionsangstrom=T cellangstrom=T Polarizability="72.5850923441715 0.871554342615497 1.19830203461183 0.880360604704414 77.153239818444 2.46869970862023 1.19792390955156 2.45701992314578 59.6616116835972" energy=-8265.734155343782 pbc="T T T"
O       -0.14499700       2.65292000       0.48988000       0.75013700       0.51757300       1.73462000
H       -0.13942800       2.52299000       1.48947000       0.42480200       0.23305100      -0.68457500
H       -0.17691600       4.35082000       0.02578190       0.17664100      -1.37732000       0.15363400
O        2.13176000       1.25590000       4.07722000       0.09592960      -0.07280440       0.22106800
H        3.57123000       2.11430000       3.67820000       1.71586000       1.00706000       0.68519700
H        2.14676000       1.08896000       5.06163000       0.26488300       0.18132700      -0.18551600
O       -0.10341600       2.66138000       3.40392000      -1.64586000      -0.28821100       0.13811100
H        0.72269700       2.08582000       3.68002000      -0.10197500      -0.59141000      -0.63154800
H       -0.06136030       4.11559000       3.76744000      -0.45041800      -0.26976100      -0.07155030
O        2.19300000       1.41393000       6.89802000      -0.55475300       0.97104900      -0.15648400
H        3.50885000       2.32119000       7.39588000      -0.82487900      -0.31412500      -0.38357400
H        1.36916000       1.85939000       7.26235000       0.14963600       0.00357316      -0.81938600
12
Lattice="4.497479 0.0 0.0 -2.2487394999999992 3.894931066987034 0.0 0.0 0.0 7.322382" Properties=species:S:1:pos:R:3:force:R:3 #=T CELL(abcABC):=T 4.49748=T 7.32238=T 90.00000=T 120.00000=T Step:=T 14500=T Bead:=T 0=T positionsangstrom=T cellangstrom=T Polarizability="67.9949044216866 -1.9776166974217 2.66993357198037 -1.98283661153636 70.7002732458228 2.21268616381572 2.66469329645258 2.20335967463631 59.6429193073882" energy=-8265.611737580086 pbc="T T T"
O       -0.14453300       2.79063000       0.25153000      -0.82958900      -0.10793200      -0.45959500
H       -0.09093490       2.60663000       1.19690000      -0.53521700       0.02767060      -1.08282000
H       -0.26268700       4.33569000      -0.02678970      -0.57525900      -0.76352800       0.46784400
O        2.11755000       1.31862000       4.13973000       0.21387900      -0.22962900      -0.77658000
H        3.62617000       2.03622000       3.76607000       1.04521000       0.10933000      -0.19974000
H        1.99795000       1.16107000       5.10130000      -0.13113000       0.29029800       0.66104800
O       -0.02070920       2.49623000       3.48040000      -0.71246100       0.25398300       0.28544900
H        0.84979400       1.92640000       3.64573000      -0.17227400      -0.20540500       0.48445400
H       -0.06554120       4.23353000       3.86438000      -0.21889600      -0.26936500      -0.15101200
O        2.12976000       1.38705000       7.01884000       1.42560000       0.73698300      -0.57260900
H        3.53853000       2.24078000       7.27187000       1.83058000       0.26382600       0.69840100
H        1.25706000       1.78519000       7.20074000      -1.34044000      -0.10623100       0.64516100
12
Lattice="4.497479 0.0 0.0 -2.2487394999999992 3.894931066987034 0.0 0.0 0.0 7.322382" Properties=species:S:1:pos:R:3:force:R:3 #=T CELL(abcABC):=T 4.49748=T 7.32238=T 90.00000=T 120.00000=T Step:=T 15400=T Bead:=T 0=T positionsangstrom=T cellangstrom=T Polarizability="70.6764501000076 -0.596084099170964 0.896462179125894 -0.597282889013452 75.339422859795 1.61426200869066 0.902089208415493 1.61167332638242 59.8507949649852" energy=-8265.77211467428 pbc="T T T"
O       -0.38625200       2.56980000       0.33724500      -0.12192700      -0.18284700      -0.71602500
H       -0.23996900       2.56541000       1.33707000      -0.19617400       0.00498521       0.70082700
H       -0.39491900       4.16865000      -0.04609380      -0.22286300       0.21484200      -0.10082600
O        2.35692000       1.38659000       4.22972000       0.13810200      -1.39987000      -1.53441000
H        3.85064000       2.20304000       3.65846000      -0.34601400      -0.09195220       0.07579730
H        2.28981000       1.38358000       5.22668000       0.06455420      -0.16279200       0.97290600
O        0.12095900       2.74908000       3.35876000       0.47240400       0.04883220       0.26991200
H        1.01862000       2.33893000       3.56628000       0.06805890       0.06943290      -0.08999610
H       -0.02326680       4.32287000       3.90426000      -0.25215300       1.47794000       0.26984900
O        1.99787000       1.25404000       6.95370000       0.37823600      -0.04535210       0.24614200
H        3.15180000       2.16272000       7.44650000       0.29754800       0.42365300      -0.34000800
H        1.07954000       1.70469000       7.10284000      -0.27977200      -0.35688000       0.24583600
12
Lattice="4.497479 0.0 0.0 -2.2487394999999992 3.894931066987034 0.0 0.0 0.0 7.322382" Properties=species:S:1:pos:R:3:force:R:3 #=T CELL(abcABC):=T 4.49748=T 7.32238=T 90.00000=T 120.00000=T Step:=T 16300=T Bead:=T 0=T positionsangstrom=T cellangstrom=T Polarizability="70.8050194134446 -2.68862707983306 1.43224676509904 -2.67464881111335 73.4900087887815 2.91227235328592 1.42757401999933 2.91757115097508 60.5805134962806" energy=-8265.774699872725 pbc="T T T"
O       -0.12419700       2.82319000       0.53203400       0.06440710       0.02969260       0.62601500
H       -0.12873600       2.74832000       1.53402000       0.06465200       0.00017377      -1.28966000
H       -0.40558200       4.54590000       0.22636200      -0.32258600      -1.05805000       0.77363500
O        2.17421000       1.13483000       3.91739000       0.40140700      -1.57073000      -0.73904200
H        3.66597000       1.99811000       3.56755000      -1.48469000      -0.61162900       0.45045200
H        2.13070000       1.16134000       4.90899000       0.12393200      -0.02414680      -0.43818000
O       -0.00511105       2.43711000       3.23934000       0.79254300       0.99031000      -0.42202800
H        0.82189400       1.81878000       3.48557000       0.80998900      -0.09621460       0.32835500
H        0.04575810       3.99140000       3.67855000      -0.39151200       1.31314000       0.66094900
O        2.04054000       1.56761000       7.18489000       0.62453400       1.04843000      -1.09702000
H        3.49700000       2.45428000       7.57131000       0.37292100      -0.14436800       0.55610800
H        1.16979000       2.08042000       7.31510000      -1.05559000       0.12339600       0.59041600
12
Lattice="4.497479 0.0 0.0 -2.2487394999999992 3.894931066987034 0.0 0.0 0.0 7.322382" Properties=species:S:1:pos:R:3:force:R:3 #=T CELL(abcABC):=T 4.49748=T 7.32238=T 90.00000=T 120.00000=T Step:=T 17200=T Bead:=T 0=T positionsangstrom=T cellangstrom=T Polarizability="72.3577285428954 -2.60879245353682 0.918978589582321 -2.61406816923177 72.4286173954635 1.66011047278368 0.915578924376373 1.65920481185685 61.1200616336477" energy=-8265.769486389196 pbc="T T T"
O        0.08470070       2.57275000       0.43221500      -0.98444500      -0.46455900       0.60150900
H        0.05849350       2.66507000       1.40471000       0.21027400      -0.31576000      -1.00710000
H        0.06187150       4.29126000      -0.06977000      -0.03878740      -0.59657700       0.30402900
O        1.89040000       1.31369000       4.14639000       0.62863800      -1.42358000       1.72324000
H        3.39337000       2.17275000       3.62487000      -0.56484000       0.04481230       0.08997940
H        2.03422000       1.24675000       5.13779000      -0.29689500       0.19656400      -1.69890000
O       -0.27964400       2.71074000       3.38013000       0.86661200      -0.01229810      -0.04382590
H        0.59068200       2.14358000       3.70515000      -0.14401300       0.27469800       0.09051120
H       -0.28711200       4.30173000       3.76988000      -0.29341200       0.80907900       0.00868738
O        2.37990000       1.37260000       6.91725000      -0.27282900       0.81534500       0.03591130
H        3.69934000       2.15162000       7.47983000       0.81180500       0.62725500      -0.01032440
H        1.40597000       1.71397000       7.19813000       0.07789310       0.04502100      -0.09371520
12
Lattice="4.497479 0.0 0.0 -2.2487394999999992 3.894931066987034 0.0 0.0 0.0 7.322382" Properties=species:S:1:pos:R:3:force:R:3 #=T CELL(abcABC):=T 4.49748=T 7.32238=T 90.00000=T 120.00000=T Step:=T 18100=T Bead:=T 0=T positionsangstrom=T cellangstrom=T Polarizability="71.5694630944841 4.54531475928811 1.70425584227016 4.55007402852775 74.4163634224408 1.48016198107891 1.70443569873608 1.46727794009597 60.9587521851873" energy=-8265.557120954272 pbc="T T T"
O       -0.21207300       2.77135000       0.42633600      -0.89068100       0.04530460      -0.85633100
H       -0.13088100       2.59093000       1.39556000      -0.05105300      -0.12913100       0.16466900
H       -0.09876600       4.22019000      -0.20795600      -0.02262780      -0.16095700       0.38064500
O        2.31414000       1.25754000       4.13344000      -1.34563000      -1.54234000      -0.35413500
H        3.59577000       2.01652000       3.74124000      -1.32601000      -1.33943000       0.37289800
H        2.16443000       1.22133000       5.08015000      -0.08948260       0.23683300       0.76884500
O       -0.04036640       2.59904000       3.44841000       1.32573000       1.98183000      -0.75829400
H        0.74060200       1.98736000       3.68526000       0.63537500      -0.54220600       0.21568700
H        0.08015220       4.15007000       3.94872000       0.73738000       1.39051000      -0.18577700
O        2.01399000       1.36770000       6.85602000       0.59628200      -0.29616300      -0.39760900
H        3.35733000       2.32996000       7.48587000       0.75810300       0.33174900       0.66506100
H        1.24288000       1.75996000       7.30863000      -0.32738500       0.02400190      -0.01565760
12
Lattice="4.497479 0.0 0.0 -2.2487394999999992 3.894931066987034 0.0 0.0 0.0 7.322382" Properties=species:S:1:pos:R:3:force:R:3 #=T CELL(abcABC):=T 4.49748=T 7.32238=T 90.00000=T 120.00000=T Step:=T 19000=T Bead:=T 0=T positionsangstrom=T cellangstrom=T Polarizability="70.3814602134344 0.160589819928559 0.612891778937129 0.163230745592244 72.317307387554 -0.652220714701555 0.614571855905584 -0.657178040428644 63.5422383711032" energy=-8265.637830849724 pbc="T T T"
O       -0.05303800       2.79994000       0.17145000       0.04607210      -0.93194200      -0.57905900
H       -0.00027650       2.86134000       1.18896000       0.30252200      -0.04358870      -0.17063800
H       -0.00950338       4.32384000      -0.30086600      -0.57858400       0.60466200      -0.00507715
O        2.13443000       1.24200000       4.12011000       0.05659580       1.27698000      -0.11105900
H        3.44335000       1.92431000       3.75884000       0.73592000       0.18746700       0.38199400
H        2.13570000       1.36202000       5.13908000       0.19365800      -0.59971800      -0.12426400
O       -0.20351000       2.47749000       3.64955000      -0.82766700       0.22112100       0.99650100
H        0.63155100       1.92152000       3.72746000      -0.09557620      -0.36341800      -1.13437000
H       -0.28606300       4.13183000       3.96400000      -0.26271100      -0.84597900      -0.00937453
O        2.20683000       1.45836000       6.94615000      -0.51695800      -0.35390400       0.31248900
H        3.57088000       2.29640000       7.32364000       0.10483500       0.76504300       0.53304200
H        1.32269000       1.73827000       7.27034000       0.84189300       0.08328170      -0.09018230
12
Lattice="4.497479 0.0 0.0 -2.2487394999999992 3.894931066987034 0.0 0.0 0.0 7.322382" Properties=species:S:1:pos:R:3:force:R:3 #=T CELL(abcABC):=T 4.49748=T 7.32238=T 90.00000=T 120.00000=T Step:=T 19900=T Bead:=T 0=T positionsangstrom=T cellangstrom=T Polarizability="70.4892435992373 -0.756106888991525 0.811731280371025 -0.763610418785679 70.4934932027849 1.28186549609072 0.811840174655676 1.29030891088008 57.1530070667593" energy=-8265.79256359398 pbc="T T T"
O       -0.17187100       2.78000000       0.46998000      -0.74748300      -1.15171000       1.77284000
H       -0.10652700       2.80565000       1.48310000      -0.13919300       0.28656300      -1.19125000
H       -0.11685500       4.39656000       0.18833400       0.31531600      -0.13240000      -0.10116900
O        2.18829000       1.25557000       4.03171000       0.76623000      -1.02957000       1.36846000
H        3.67310000       1.86554000       3.46072000      -1.01558000      -0.33865800       0.34015800
H        2.23486000       1.32230000       5.00634000      -0.37994200       0.09303330      -1.44277000
O       -0.11622200       2.54210000       3.27846000       1.76812000       0.63947700       0.15348400
H        0.74082100       2.04759000       3.60789000      -0.71990800       0.07677960      -0.77798100
H       -0.12742400       4.12458000       3.79074000      -0.61773800       0.61165400       0.24772800
O        2.16383000       1.39165000       7.07928000       1.57109000      -0.71525700      -0.27440300
H        3.48506000       2.24825000       7.62312000       0.37253300       0.77428200      -0.41079500
H        1.35373000       1.88336000       7.35299000      -1.17345000       0.88580500       0.31570600
12
Lattice="4.497479 0.0 0.0 -2.2487394999999992 3.894931066987034 0.0 0.0 0.0 7.322382" Properties=species:S:1:pos:R:3:force:R:3 #=T CELL(abcABC):=T 4.49748=T 7.32238=T 90.00000=T 120.00000=T Step:=T 20800=T Bead:=T 0=T positionsangstrom=T cellangstrom=T Polarizability="70.0676422645365 -0.767138617515674 1.96190182135223 -0.763681728128097 75.5458875589079 1.43274476052775 1.95821022341596 1.42576081422155 61.2737043542354" energy=-8265.688957457636 pbc="T T T"
O       -0.34206600       2.77592000       0.53189500      -0.84824600      -0.51900900      -0.04853230
H       -0.33435400       2.60757000       1.55319000       0.06381020       0.04629530      -0.28687500
H       -0.33651400       4.39556000       0.10802300       0.24124600      -1.10789000       0.36416800
O        2.31028000       1.25849000       4.03103000       0.19904000      -0.87865300      -0.81167900
H        3.75845000       2.01210000       3.63322000      -0.01734540       0.50656300      -0.47716200
H        2.19527000       1.15641000       5.02542000      -0.00326652      -0.13267000       0.06630580
O        0.07755350       2.47532000       3.28479000      -0.35488700      -0.51835400       1.34208000
H        1.02730000       2.12821000       3.47106000       0.16985900      -0.04076300      -0.00808644
H        0.00409527       4.17804000       3.60523000       0.13207800       1.04987000       0.24162700
O        2.03593000       1.45628000       7.03580000       1.20023000       0.33209400      -0.61183400
H        3.33541000       2.30653000       7.50783000       0.55586200       0.29670400      -0.20651600
H        1.20653000       1.96228000       7.22695000      -1.33837000       0.96581700       0.43650500
12
Lattice="4.497479 0.0 0.0 -2.2487394999999992 3.894931066987034 0.0 0.0 0.0 7.322382" Properties=species:S:1:pos:R:3:force:R:3 #=T CELL(abcABC):=T 4.49748=T 7.32238=T 90.00000=T 120.00000=T Step:=T 21700=T Bead:=T 0=T positionsangstrom=T cellangstrom=T Polarizability="72.621360595284 2.45421509183806 -0.077013463446126 2.4669166162959 71.2848085649206 1.63244068291808 -0.0688453046217795 1.63240075078266 57.2977510157124" energy=-8265.652540628875 pbc="T T T"
O       -0.14354700       2.45193000       0.58301800      -1.26282000       0.42629900      -1.08288000
H        0.05599170       2.52499000       1.52676000       0.05839810       0.06956270       0.58604100
H       -0.16852500       4.10236000      -0.08783880       0.70166300       0.29917800       0.15507700
O        2.18120000       1.47728000       3.94528000      -0.71697600      -0.47189900       0.94402500
H        3.51266000       2.30887000       3.68129000       0.40997400       0.17998400       0.15303700
H        2.22033000       1.52686000       4.94501000       0.32208400       0.24999500      -0.37016700
O       -0.13347500       2.85115000       3.36836000       1.00576000      -1.13409000       0.07283150
H        0.56593100       2.30096000       3.74805000      -1.13797000       1.40955000      -0.00994953
H       -0.01484190       4.35346000       3.75484000       0.00815958      -0.22837300      -0.60245000
O        2.16482000       1.18687000       6.95454000       2.29583000      -2.14773000      -0.91872200
H        3.48535000       1.92578000       7.72262000       0.88893500      -0.07001030       0.33485100
H        1.40085000       1.68400000       7.35326000      -2.57303000       1.41753000       0.73831000
12
Lattice="4.497479 0.0 0.0 -2.2487394999999992 3.894931066987034 0.0 0.0 0.0 7.322382" Properties=species:S:1:pos:R:3:force:R:3 #=T CELL(abcABC):=T 4.49748=T 7.32238=T 90.00000=T 120.00000=T Step:=T 22600=T Bead:=T 0=T positionsangstrom=T cellangstrom=T Polarizability="75.7665926593957 0.833289885874684 1.79942520689607 0.83468897938287 72.7494784149859 2.09726238760728 1.79940643525788 2.09814440722872 63.3879298668345" energy=-8265.821724632438 pbc="T T T"
O       -0.05163650       2.82701000       0.44165500       1.32930000       1.02253000       0.42406600
H       -0.05468250       2.68987000       1.45495000      -0.05838660      -0.40226800      -0.48470700
H       -0.09200040       4.40457000       0.03941700      -0.06408970      -0.10913300       0.74289300
O        2.11987000       1.21674000       4.14352000      -0.07838890       1.29034000       1.18451000
H        3.53068000       2.01725000       3.72061000       1.07512000       0.96040700      -0.23561500
H        2.19480000       1.18064000       5.16260000       0.30475500      -0.56027400      -1.35554000
O       -0.16946700       2.47777000       3.35557000      -0.67794600      -1.16627000       0.30922400
H        0.65472800       1.85782000       3.61524000      -0.61113200       0.28010200      -0.17410100
H       -0.04575420       4.11939000       3.89283000       0.17500100      -0.65372300       0.26222100
O        2.16252000       1.45704000       6.91713000       0.01470750       0.33001100      -0.51716600
H        3.64084000       2.25094000       7.41446000      -1.00514000      -0.85109500      -0.29127400
H        1.35156000       2.02691000       7.23781000      -0.40380000      -0.14062700       0.13549100
12
Lattice="4.497479 0.0 0.0 -2.2487394999999992 3.894931066987034 0.0 0.0 0.0 7.322382" Properties=species:S:1:pos:R:3:force:R:3 #=T CELL(abcABC):=T 4.49748=T 7.32238=T 90.00000=T 120.00000=T Step:=T 23500=T Bead:=T 0=T positionsangstrom=T cellangstrom=T Polarizability="69.3021020635323 0.09301170281724 0.0308201406865365 0.0923507100820193 69.4022904508246 2.43164622320856 0.0326036035356093 2.4315491777661 57.7807370702445" energy=-8265.676832876929 pbc="T T T"
O       -0.02305790       2.46522000       0.34708400      -1.46746000      -0.65307900      -0.07242360
H       -0.09342720       2.58258000       1.36235000       0.32556500      -0.08897530      -0.35140900
H        0.00424476       4.24463000       0.11702500      -0.34587000      -0.58935100       0.76954200
O        1.96975000       1.45796000       4.08858000      -0.08597550      -0.67351000      -2.18751000
H        3.50377000       2.25637000       3.72484000      -0.22861400       0.12264300      -0.01776300
H        2.07731000       1.41457000       5.08427000       0.03131480      -0.20906000       1.89010000
O       -0.16831200       2.80894000       3.34834000       0.99044000       0.48067800       0.63184200
H        0.64191200       2.29716000       3.60809000      -0.59676400       0.10401600      -0.75061400
H       -0.22788300       4.38397000       3.75494000      -0.18240900       0.25643600       0.27550800
O        2.29940000       1.22132000       7.08369000       0.82903700       1.48079000      -0.99844100
H        3.61429000       2.09023000       7.43696000       0.91786400       0.32639000       0.51614700
H        1.39814000       1.67656000       7.29369000      -0.18712900      -0.55697500       0.29502600
12
Lattice="4.497479 0.0 0.0 -2.2487394999999992 3.894931066987034 0.0 0.0 0.0 7.322382" Properties=species:S:1:pos:R:3:force:R:3 #=T CELL(abcABC):=T 4.49748=T 7.32238=T 90.00000=T 120.00000=T Step:=T 24400=T Bead:=T 0=T positionsangstrom=T cellangstrom=T Polarizability="70.3504646312198 -3.35552857844971 3.10682804240231 -3.35101884015755 69.0441751779125 1.03565595413001 3.10552928495956 1.04064536824862 60.4668571171309" energy=-8265.64855942327 pbc="T T T"
O       -0.07080080       2.36076000       0.38901400       1.13315000       0.75866100      -0.16151300
H        0.02465240       2.54508000       1.39783000       0.37958800       0.14590200       0.87068400
H       -0.24101700       3.94177000      -0.20270200       0.09557120       0.02648900      -0.48180400
O        2.14231000       1.60543000       4.10710000      -0.31009200       1.84497000       0.17344800
H        3.62398000       2.52147000       3.74319000       0.19582200       0.73385100      -0.74797200
H        1.87090000       1.49211000       5.06242000       0.17102700      -0.07377680       0.33550800
O       -0.05957190       2.95659000       3.39605000       0.04596990      -1.92974000       1.52971000
H        0.70130600       2.42174000       3.78785000       0.12133500       0.30859000      -0.70393500
H       -0.15226400       4.55112000       3.75268000      -0.33247600      -0.92127800      -0.56629200
O        2.07644000       1.03886000       6.97157000      -1.36730000       0.42127500       1.27599000
H        3.62480000       1.76937000       7.63470000      -0.98634500      -0.76470200      -0.49909400
H        1.29771000       1.57334000       7.26906000       0.85374800      -0.55024100      -1.02473000
12
Lattice="4.497479 0.0 0.0 -2.2487394999999992 3.894931066987034 0.0 0.0 0.0 7.322382" Properties=species:S:1:pos:R:3:force:R:3 #=T CELL(abcABC):=T 4.49748=T 7.32238=T 90.00000=T 120.00000=T Step:=T 25300=T Bead:=T 0=T positionsangstrom=T cellangstrom=T Polarizability="70.9476220062429 0.858213132704783 2.74835782072892 0.858744344033022 71.0219872413699 1.92581773450848 2.74476829368262 1.92014582854191 55.4342247893727" energy=-8265.739118924796 pbc="T T T"
O       -0.00658228       2.65185000       0.36655400       0.46107200       0.09231720       1.45021000