12
Lattice="4.497479 0.0 0.0 -2.2487394999999992 3.894931066987034 0.0 0.0 0.0 7.322382" Properties=species:S:1:pos:R:3:force:R:3 #=T CELL(abcABC):=T 4.49748=T 7.32238=T 90.00000=T 120.00000=T Step:=T 10100=T Bead:=T 0=T positionsangstrom=T cellangstrom=T Polarizability="77.4386031067699 -1.0942439469589 -0.594482300901944 -1.08811483355835 73.5360974681246 2.31049443205541 -0.583668856554758 2.30943543757378 60.3532498457977" energy=-8265.748261909963 pbc="T T T"
O       -0.29818800       2.83101000       0.44927700      -1.12161000       0.19320000       2.06305000
H       -0.06859010       2.75318000       1.43675000       1.94579000       0.76512100      -1.79979000
H       -0.45809500       4.50419000       0.04271720      -0.43492000       2.27503000      -0.20859800
O        2.38818000       1.10623000       3.99399000      -2.35497000      -0.97666500       1.71639000
H        3.77405000       1.89298000       3.60645000       2.28043000       2.52880000      -0.92814800
H        2.39898000       1.14839000       5.00162000       0.03179940      -1.32721000      -0.50028300
O        0.09857290       2.47178000       3.24851000      -0.36451300       4.01112000      -0.99664200
H        0.93483000       1.93237000       3.47295000       3.14343000      -3.15841000      -0.08525470
H        0.05259400       3.98556000       3.67045000      -2.94162000      -1.35228000       1.05816000
O        1.88728000       1.57264000       7.18568000       1.17819000      -2.60823000      -0.14797000
H        3.32957000       2.22855000       7.62116000      -0.87251300      -0.49627300      -0.68526200
H        0.98581900       2.05299000       7.37513000      -0.48950400       0.14578100       0.51434400
12
Lattice="4.497479 0.0 0.0 -2.2487394999999992 3.894931066987034 0.0 0.0 0.0 7.322382" Properties=species:S:1:pos:R:3:force:R:3 #=T CELL(abcABC):=T 4.49748=T 7.32238=T 90.00000=T 120.00000=T Step:=T 10200=T Bead:=T 0=T positionsangstrom=T cellangstrom=T Polarizability="72.3618871807413 -1.24253078676513 0.32509806569268 -1.24189684178068 74.3890670217649 2.83169554771301 0.316606836894171 2.83211236957622 61.5531418410183" energy=-8265.672963696588 pbc="T T T"
O       -0.19913200       2.81952000       0.61421600      -1.11128000      -0.42855700       1.78110000
H       -0.14347000       2.64549000       1.64468000       0.44702100      -0.23133600      -1.34263000
H       -0.22531400       4.52001000       0.38439000       1.01308000       1.00115000      -0.37470500
O        2.24011000       1.21568000       3.86442000      -5.15373000      -1.33250000      -0.74794900
H        3.59345000       1.92821000       3.41940000       4.71081000       1.68051000      -1.23687000
H        2.22042000       1.21694000       4.87359000       0.38847400      -0.10366400       1.00665000
O       -0.04998960       2.43406000       3.18702000       1.49886000      -2.48600000      -1.03956000
H        0.74495300       1.90960000       3.49397000      -1.96054000       0.79378400       0.86221300
H       -0.17455600       4.08793000       3.60870000       0.28508800       1.59724000       0.96734600
O        2.09665000       1.51267000       7.19795000       1.21798000      -3.13328000      -0.24018400
H        3.52413000       2.24832000       7.61533000       0.84517200       1.06499000       0.22437400
H        1.22214000       1.93749000       7.40687000      -2.18094000       1.57766000       0.14020800
12
Lattice="4.497479 0.0 0.0 -2.2487394999999992 3.894931066987034 0.0 0.0 0.0 7.322382" Properties=species:S:1:pos:R:3:force:R:3 #=T CELL(abcABC):=T 4.49748=T 7.32238=T 90.00000=T 120.00000=T Step:=T 10300=T Bead:=T 0=T positionsangstrom=T cellangstrom=T Polarizability="68.899328676502 1.51567619651389 0.179240685205209 1.50367343442036 73.7726002410525 1.55783755949396 0.177732025834016 1.56018401251883 58.2063734265686" energy=-8265.829850772883 pbc="T T T"
O       -0.14887800       2.74386000       0.39983000       0.30904600       0.04976110      -2.36499000
H       -0.12051400       2.72200000       1.42546000       0.08368140      -0.19651200       1.42612000
H       -0.07154740       4.28420000      -0.04265440      -0.48242300      -0.66483500       0.59584000
O        2.08896000       1.23240000       4.02514000       2.23337000       0.27115800      -0.39769300
H        3.60247000       2.06592000       3.65944000      -0.64618800      -2.36132000       1.23007000
H        2.25649000       1.28235000       5.00178000      -1.05923000       0.87279800      -0.76694900
O       -0.11407300       2.60925000       3.37442000      -1.32132000       2.84642000      -0.39063000
H        0.72875200       2.10961000       3.66804000       0.05832910      -0.74904300       0.74265400
H        0.05179370       4.11997000       3.84684000       0.34878900      -0.77413200      -0.74528500
O        2.22916000       1.38919000       7.07715000       0.06875090       2.09949000       0.06455930
H        3.48745000       2.20598000       7.50126000      -0.82109100       0.19893300       0.48493900
H        1.34227000       1.81855000       7.18158000       1.22829000      -1.59271000       0.12137400
12
Lattice="4.497479 0.0 0.0 -2.2487394999999992 3.894931066987034 0.0 0.0 0.0 7.322382" Properties=species:S:1:pos:R:3:force:R:3 #=T CELL(abcABC):=T 4.49748=T 7.32238=T 90.00000=T 120.00000=T Step:=T 10400=T Bead:=T 0=T positionsangstrom=T cellangstrom=T Polarizability="74.2600535084432 0.9693712058749 -0.603810011299117 0.969921272330364 67.7697868225052 1.51642109628188 -0.610689541391552 1.52030204557485 62.9326896606781" energy=-8265.751165949549 pbc="T T T"
O        0.03702470       2.55682000       0.30930200      -0.87404400       0.09339700       0.63207400
H        0.03472820       2.72804000       1.30976000       0.34174500      -0.49312600      -0.53259100
H        0.04262500       4.30802000      -0.14433700       0.29608900      -0.67958000      -0.36530400
O        2.07937000       1.35994000       4.22871000      -0.60702700      -0.44411100       0.46402900
H        3.36239000       2.22248000       3.60676000       1.27905000       0.42349800      -1.94862000
H        2.12514000       1.36187000       5.22582000      -0.32720400       0.36883700       1.38189000
O       -0.23998800       2.69563000       3.48527000      -1.46071000      -0.29962800       1.30929000
H        0.47933000       2.05496000       3.82103000       0.25901900      -0.10450700      -0.22919600
H       -0.10549700       4.32859000       3.94293000       0.65824600       0.01569370      -1.07387000
O        2.20607000       1.34819000       6.84220000      -0.02555150       0.49335400      -0.42804700
H        3.60729000       2.09665000       7.42816000       0.90389900       0.52907100       0.46402200
H        1.29770000       1.73219000       7.22722000      -0.44351800       0.09710100       0.32632200
12
Lattice="4.497479 0.0 0.0 -2.2487394999999992 3.894931066987034 0.0 0.0 0.0 7.322382" Properties=species:S:1:pos:R:3:force:R:3 #=T CELL(abcABC):=T 4.49748=T 7.32238=T 90.00000=T 120.00000=T Step:=T 10500=T Bead:=T 0=T positionsangstrom=T cellangstrom=T Polarizability="70.8558157255479 -1.449998095443 0.829210765433287 -1.45801942822111 70.9471882225939 0.259299030884894 0.828458162731757 0.258487452785671 53.724913313511" energy=-8265.707829406283 pbc="T T T"
O       -0.10870700       2.58769000       0.42224600      -0.72519300      -1.02980000      -1.75076000
H       -0.16680000       2.69623000       1.37198000      -0.06732290       0.25941000       1.04937000
H       -0.01663920       4.19999000      -0.17272000       0.36206200      -1.02901000       0.79489500
O        2.00623000       1.37165000       4.03688000       0.81571000      -0.95735100      -2.67670000
H        3.47774000       2.23021000       3.54401000      -2.23244000      -0.01833730       0.60410200
H        2.14419000       1.47312000       4.99319000      -0.14228300       0.24915300       1.98877000
O       -0.19526700       2.71153000       3.35217000       1.70020000      -1.19436000      -0.20433900
H        0.62904100       2.21022000       3.68067000       0.65375200       1.18624000      -0.10461100
H       -0.18920700       4.25854000       3.82437000      -0.75696300       0.76712500       0.16800200
O        2.37410000       1.30401000       7.07794000       2.02144000      -0.32809600      -0.98253800
H        3.61142000       1.92764000       7.45069000       0.42512700       0.67069800       0.48772900
H        1.45113000       1.60970000       7.34805000      -2.05409000       1.42434000       0.62608400
12
Lattice="4.497479 0.0 0.0 -2.2487394999999992 3.894931066987034 0.0 0.0 0.0 7.322382" Properties=species:S:1:pos:R:3:force:R:3 #=T CELL(abcABC):=T 4.49748=T 7.32238=T 90.00000=T 120.00000=T Step:=T 10600=T Bead:=T 0=T positionsangstrom=T cellangstrom=T Polarizability="75.0215857035331 -1.20692620865615 1.24645936647263 -1.21159070969421 73.1705782901033 0.896033696145454 1.2453954758246 0.911155691064477 64.9671048273477" energy=-8265.702245377643 pbc="T T T"
O        0.11611900       2.62482000       0.50322100       1.78417000       2.12356000       0.65789200
H       -0.00577612       2.82791000       1.48619000       0.17449300      -0.85022700       0.05804920
H       -0.04656250       4.18801000       0.03291460      -0.58159600       0.22155700      -0.44336500
O        2.03906000       1.31060000       4.08045000      -0.10877700       0.59241900      -0.87406600
H        3.46856000       2.13868000       3.51090000       1.02268000       0.15040600      -0.95205700
H        2.10273000       1.42668000       5.09180000       0.04375230      -0.82436100       1.05655000
O       -0.21070100       2.71462000       3.24821000       1.75489000       0.05566130       1.09884000
H        0.64281300       2.23417000       3.60125000      -2.11380000       0.05799710      -0.44445800
H       -0.24308800       4.17560000       3.90332000      -0.53949000       0.02531800       0.19266600
O        2.12689000       1.30143000       7.02153000       0.20544400       0.28526300      -0.29123100
H        3.77233000       2.15180000       7.56934000      -1.70889000      -0.77795300      -0.65001800
H        1.32922000       1.83445000       7.41314000       0.06711940      -1.05964000       0.59119800
12
Lattice="4.497479 0.0 0.0 -2.2487394999999992 3.894931066987034 0.0 0.0 0.0 7.322382" Properties=species:S:1:pos:R:3:force:R:3 #=T CELL(abcABC):=T 4.49748=T 7.32238=T 90.00000=T 120.00000=T Step:=T 10700=T Bead:=T 0=T positionsangstrom=T cellangstrom=T Polarizability="72.2629135509904 1.66504892351694 0.519719195339454 1.67539840504488 71.2062175749707 0.624775660523003 0.522501699310299 0.619914643105026 59.5866102175799" energy=-8265.878590380898 pbc="T T T"
O       -0.06854690       2.61200000       0.48007000       1.28776000      -0.11662600      -0.55584600
H       -0.08427190       2.55734000       1.46657000      -0.52629000      -0.37641600       0.30236400
H       -0.04595040       4.28940000      -0.06101790      -0.41402800       0.14791100      -0.28520000
O        2.11156000       1.34050000       4.04029000      -0.00349558      -0.70431800      -1.44784000
H        3.38413000       2.05908000       3.54296000      -0.42151300      -0.39451800       0.34800000
H        2.10294000       1.42698000       5.04555000       0.05378020       0.35967600       1.43006000
O       -0.26951400       2.66071000       3.39771000       0.54767600       0.06789660      -0.62769600
H        0.55673600       2.08470000       3.52988000      -0.30584400       0.32442300       0.83105200
H       -0.23419600       4.22711000       3.85589000       0.32743200       0.33714900      -0.25897400
O        2.31466000       1.36196000       6.96544000      -0.14944100       0.49447100       0.26557000
H        3.57227000       2.14232000       7.43364000      -0.85959500      -0.09065770       0.24065500
H        1.50182000       1.81409000       7.31768000       0.46355600      -0.04899100      -0.24214600
12
Lattice="4.497479 0.0 0.0 -2.2487394999999992 3.894931066987034 0.0 0.0 0.0 7.322382" Properties=species:S:1:pos:R:3:force:R:3 #=T CELL(abcABC):=T 4.49748=T 7.32238=T 90.00000=T 120.00000=T Step:=T 10800=T Bead:=T 0=T positionsangstrom=T cellangstrom=T Polarizability="70.3683038488154 -1.91810243576215 1.17991832400435 -1.9247525771721 70.5196419107847 1.05579897759601 1.18548670755554 1.05546210332668 60.4794705794235" energy=-8265.862993016948 pbc="T T T"
O       -0.00380982       2.62095000       0.50911500       0.07834950       0.72502300       0.12226300
H       -0.04552170       2.66056000       1.52011000       0.29962600       0.32497000       0.74980800
H       -0.08562910       4.22955000      -0.03617950       0.82269200       0.23979800       0.14739600
O        2.00889000       1.35989000       4.13471000      -0.17002900       1.82843000      -0.04436750
H        3.57714000       2.12797000       3.58624000      -0.43145500      -0.20349600      -0.39529400
H        2.07030000       1.36729000       5.13080000      -0.37804700      -0.63146300       0.42063100
O       -0.16874100       2.70195000       3.18034000       0.84958500      -0.26361800       0.42387100
H        0.66574400       2.24323000       3.54554000      -0.03633500       0.53821900      -0.21645000
H       -0.25929800       4.24178000       3.83535000       0.28942400      -1.41464000      -0.14535000
O        2.23835000       1.28806000       7.03334000      -0.19495900      -0.74804200      -0.13317400
H        3.62761000       2.09923000       7.60576000      -0.64212500      -0.92335800      -0.87474100
H        1.41704000       1.70010000       7.35615000      -0.48672600       0.52818300      -0.05459280
12
Lattice="4.497479 0.0 0.0 -2.2487394999999992 3.894931066987034 0.0 0.0 0.0 7.322382" Properties=species:S:1:pos:R:3:force:R:3 #=T CELL(abcABC):=T 4.49748=T 7.32238=T 90.00000=T 120.00000=T Step:=T 11000=T Bead:=T 0=T positionsangstrom=T cellangstrom=T Polarizability="70.7987888672152 -0.924742322542633 0.912203106778217 -0.930382981164534 67.8361880792326 1.27012476147823 0.911809477844008 1.26595809955728 58.1161453755629" energy=-8265.707295131939 pbc="T T T"
O       -0.30079100       2.57271000       0.53358800      -1.65383000      -0.71989500      -1.04885000
H       -0.37490500       2.55786000       1.55025000       0.24179000       0.17811000       0.84250900
H       -0.25547300       4.34644000      -0.05733910       0.10563900      -0.97959400       0.11446800
O        2.32028000       1.34225000       4.05660000       0.42751100      -0.26989000       0.14848600
H        3.84400000       2.01054000       3.74239000      -0.53670800       0.14298900       0.38509200
H        2.14094000       1.36800000       5.05986000      -0.93588600      -0.58848700      -0.95520500
O       -0.01018610       2.68629000       3.32953000      -0.06257820       0.92912400      -0.48074100
H        0.88250200       2.36629000       3.46685000       0.67647700      -0.60089200      -0.03930840
H       -0.06349170       4.27303000       3.73383000       0.48842600       0.36851400       0.95374700
O        2.07476000       1.35918000       6.95524000      -0.61588700       0.75367500       0.76944000
H        3.40850000       2.08814000       7.47121000       1.12797000       0.70338200      -0.21545400
H        1.23654000       1.82493000       7.29989000       0.73707700       0.08296370      -0.47418500
12
Lattice="4.497479 0.0 0.0 -2.2487394999999992 3.894931066987034 0.0 0.0 0.0 7.322382" Properties=species:S:1:pos:R:3:force:R:3 #=T CELL(abcABC):=T 4.49748=T 7.32238=T 90.00000=T 120.00000=T Step:=T 11100=T Bead:=T 0=T positionsangstrom=T cellangstrom=T Polarizability="69.9515508757102 -2.03009737338218 2.52065885251791 -2.03491145033259 72.0220604831991 2.13497018152798 2.51617483069978 2.13341531844919 59.9413066803777" energy=-8265.838287137141 pbc="T T T"
O       -0.18765500       2.78393000       0.36108600      -0.80186600      -0.52620200       0.51500100
H       -0.07026300       2.62627000       1.36066000      -0.40306700      -0.47472800      -0.42060800
H       -0.16167300       4.39425000       0.00751866       0.32719100       0.81881200      -0.56700600
O        2.17642000       1.19787000       4.17108000       0.89155800       1.68452000       1.25792000
H        3.70974000       2.02688000       3.69500000      -0.11575400      -0.24183500      -0.27169200
H        1.92475000       1.26960000       5.11934000      -0.51552200       0.44422000      -0.13865400
O        0.02736330       2.53537000       3.35279000       0.46709200      -0.16718800       0.77217500
H        0.94493300       2.12792000       3.65110000      -0.50502900       0.17364500      -0.34392800
H       -0.12778600       4.11348000       3.93856000      -0.02814720      -1.80112000      -1.12605000
O        2.06290000       1.44699000       6.97653000       0.50841700      -1.19407000      -0.20694300
H        3.44519000       2.29349000       7.43016000       0.87977100       0.66007900       0.01085580
H        1.23370000       1.92406000       7.27829000      -0.70464400       0.62387300       0.51893200
12
Lattice="4.497479 0.0 0.0 -2.2487394999999992 3.894931066987034 0.0 0.0 0.0 7.322382" Properties=species:S:1:pos:R:3:force:R:3 #=T CELL(abcABC):=T 4.49748=T 7.32238=T 90.00000=T 120.00000=T Step:=T 11200=T Bead:=T 0=T positionsangstrom=T cellangstrom=T Polarizability="69.031469029419 1.65342396251374 0.486139100677503 1.65301035563247 71.298518594343 1.27304165173724 0.484628727187 1.27228853440435 57.8373515860592" energy=-8265.89488574843 pbc="T T T"
O       -0.15612000       2.74368000       0.37916400      -0.48577100      -0.54561900      -0.65705900
H       -0.20212700       2.70640000       1.41928000      -0.05786440      -0.31572800       0.09606290
H       -0.09068550       4.42365000       0.01054060      -0.16595300      -2.60278000       0.58458600
O        2.22425000       1.16126000       4.10998000      -0.82563400       2.39505000      -1.22014000
H        3.53318000       2.01285000       3.66403000      -1.61006000      -1.06227000       0.56208700
H        2.23764000       1.20919000       5.09837000       0.10143400      -0.11499200       1.81161000
O       -0.18040300       2.60259000       3.39878000       2.11619000       1.69075000      -0.57058700
H        0.65456400       2.04817000       3.62367000       0.62476000      -0.30062700      -0.04402390
H       -0.05142020       4.08416000       3.78511000      -0.40084100      -2.46229000      -0.16855400
O        2.19108000       1.46392000       6.98628000      -0.77864700       2.14026000      -0.24689900
H        3.49422000       2.31751000       7.39592000       0.90536000       0.92846400      -0.14996100
H        1.32669000       1.85831000       7.28201000       0.57703400       0.24977700       0.00288178
12
Lattice="4.497479 0.0 0.0 -2.2487394999999992 3.894931066987034 0.0 0.0 0.0 7.322382" Properties=species:S:1:pos:R:3:force:R:3 #=T CELL(abcABC):=T 4.49748=T 7.32238=T 90.00000=T 120.00000=T Step:=T 11300=T Bead:=T 0=T positionsangstrom=T cellangstrom=T Polarizability="69.8884453833548 0.634014041791959 -0.55858771503875 0.63326360427754 68.2950191437651 3.17250266488986 -0.566137173004834 3.17276040239703 58.9806567415706" energy=-8265.813994889088 pbc="T T T"
O        0.04710820       2.70509000       0.51000900      -0.28864300       0.23269600       1.34810000
H       -0.16398600       2.58534000       1.48280000      -0.54914100      -0.55002500      -0.56891900
H        0.08183050       4.44221000       0.07421140       0.61469700       1.41482000      -0.49230700
O        2.01204000       1.27324000       4.10175000       0.31352300      -2.32714000       0.08950250
H        3.41702000       2.01523000       3.52860000       1.42741000       0.81306200      -0.65540800
H        2.16671000       1.15301000       5.05779000      -0.19260700       0.45850400       0.89568600
O       -0.25641500       2.55071000       3.28059000      -1.33896000      -0.52739700       0.63284700
H        0.47045500       1.97448000       3.59709000      -0.60735400       0.38952400       0.06510310
H       -0.25592100       4.18112000       3.83457000       0.40729100       1.34911000      -0.93111500
O        2.28336000       1.45416000       6.98517000      -0.10151200      -1.07174000       0.39247700
H        3.70544000       2.27632000       7.42139000       0.24614600      -0.24793500      -0.44773500
H        1.36497000       1.84604000       7.22966000       0.06915190       0.06651460      -0.32822900
12
Lattice="4.497479 0.0 0.0 -2.2487394999999992 3.894931066987034 0.0 0.0 0.0 7.322382" Properties=species:S:1:pos:R:3:force:R:3 #=T CELL(abcABC):=T 4.49748=T 7.32238=T 90.00000=T 120.00000=T Step:=T 11400=T Bead:=T 0=T positionsangstrom=T cellangstrom=T Polarizability="74.8722863553398 2.75335184300471 0.196486916750411 2.75092753918839 76.7737952790484 2.43337891016719 0.190441656059606 2.42573317710826 58.1754115096585" energy=-8265.694369139714 pbc="T T T"
O        0.06110320       2.70798000       0.29979100       0.94842900       0.22011200       1.88733000
H       -0.00254876       2.54349000       1.27301000       0.18949000       0.41590800      -1.10312000
H        0.13812900       4.29847000       0.05354710      -0.32419400      -0.79564300       0.43425500
O        1.97217000       1.23653000       4.13610000      -0.10841900       1.46679000      -1.48705000
H        3.29748000       2.23773000       3.71894000       0.72681400       0.27660300       0.20797200
H        2.09231000       1.23535000       5.11661000      -0.28897100      -0.33164700       0.73836000
O       -0.27423100       2.63594000       3.45986000       0.34324000      -1.13504000       0.12773300
H        0.50492400       2.14851000       3.85005000      -1.02442000       0.69213400      -0.22250700
H       -0.20938300       4.19790000       3.72538000       0.11540600      -0.98497200       0.30349100
O        2.30962000       1.38734000       6.97753000      -0.76986600       1.40075000       0.26585500
H        3.77957000       2.15330000       7.25691000      -0.87210400      -0.32643400      -0.93865600
H        1.46258000       1.90355000       7.29911000       1.06459000      -0.89855400      -0.21366700
12
Lattice="4.497479 0.0 0.0 -2.2487394999999992 3.894931066987034 0.0 0.0 0.0 7.322382" Properties=species:S:1:pos:R:3:force:R:3 #=T CELL(abcABC):=T 4.49748=T 7.32238=T 90.00000=T 120.00000=T Step:=T 11500=T Bead:=T 0=T positionsangstrom=T cellangstrom=T Polarizability="73.7675303097449 -0.151989803000154 1.4707056951265 -0.148436645923505 73.506342137072 3.62602933937266 1.45760900196904 3.62507050359714 58.5405151631238" energy=-8265.729984556956 pbc="T T T"
O       -0.01022210       2.63686000       0.27731900       0.25379800      -0.00656666       0.28127400
H       -0.08946780       2.56562000       1.23295000      -0.74426500      -0.58711200      -0.72773600
H       -0.01800370       4.40154000      -0.08875270       0.40250000       0.27148200      -0.23111100
O        2.01704000       1.33076000       4.24138000       0.28399600      -0.47950200       0.70221500
H        3.38196000       2.25161000       3.79748000       0.35773000       0.02888470      -0.15673700
H        1.99075000       1.27379000       5.22833000      -0.02488040       0.48151000       0.32871000
O       -0.20058000       2.57779000       3.50647000      -0.65232800       0.11097300       0.19786400
H        0.64592700       2.07909000       3.85823000      -0.15600700       0.13316600      -0.55958000
H       -0.16501300       4.21751000       3.98899000       0.04902840      -0.16922500      -0.60451900
O        2.28422000       1.41402000       6.84367000       1.12780000      -1.06169000      -0.54823900
H        3.60107000       2.16992000       7.23977000       0.89397000       0.21700000       0.96101500
H        1.36996000       1.89196000       7.10697000      -1.79134000       1.06108000       0.35684500
12
Lattice="4.497479 0.0 0.0 -2.2487394999999992 3.894931066987034 0.0 0.0 0.0 7.322382" Properties=species:S:1:pos:R:3:force:R:3 #=T CELL(abcABC):=T 4.49748=T 7.32238=T 90.00000=T 120.00000=T Step:=T 11600=T Bead:=T 0=T positionsangstrom=T cellangstrom=T Polarizability="74.6239026738661 3.26709488869881 2.26092223813285 3.27430873217357 74.3039285163294 1.56808606185992 2.26617052548173 1.56050934335022 59.7391162861258" energy=-8265.680633118642 pbc="T T T"
O       -0.17134100       2.69425000       0.38934400       0.19421900      -0.63929000       0.86166800
H       -0.16672400       2.58964000       1.39706000      -0.21955500       0.45805700       0.08748420
H       -0.20300700       4.21670000      -0.00766914      -0.02956290      -0.64901900       0.27547900
O        2.17730000       1.26796000       4.10737000       0.34417500       0.66147100      -0.64200100
H        3.69848000       2.14106000       3.90255000       0.19252200       0.77331000       0.07710990
H        2.13186000       1.19890000       5.10369000      -0.01588730      -0.28583700       0.15662100
O       -0.08032830       2.71677000       3.34984000       0.74383900      -0.88353200       0.17234800
H        0.66999000       2.03612000       3.52847000      -0.74770500      -0.03976990      -0.20482800
H       -0.00895064       4.17755000       3.82683000      -0.66820700      -0.15171900       0.33517500
O        2.15253000       1.31689000       7.01308000      -1.20800000       2.00219000       0.09560120
H        3.47326000       2.14306000       7.48608000      -0.35279700      -0.01229130      -0.71372800
H        1.31726000       1.76967000       7.27311000       1.76696000      -1.23357000      -0.50093100
12
Lattice="4.497479 0.0 0.0 -2.2487394999999992 3.894931066987034 0.0 0.0 0.0 7.322382" Properties=species:S:1:pos:R:3:force:R:3 #=T CELL(abcABC):=T 4.49748=T 7.32238=T 90.00000=T 120.00000=T Step:=T 11700=T Bead:=T 0=T positionsangstrom=T cellangstrom=T Polarizability="72.6936348302233 -0.547063619707807 2.48656586823953 -0.532779561153886 69.8551416511179 0.696158358156646 2.47909990782623 0.698992954321529 59.8996504060943" energy=-8265.648628361894 pbc="T T T"
O       -0.22042900       2.57445000       0.51662900      -0.78624100      -0.12747500      -0.70014100
H       -0.21189700       2.59095000       1.50112000      -0.46704700      -0.42855500      -0.42631200
H       -0.45567700       4.39628000      -0.06127070       0.62672200       0.16061700      -0.37967500
O        2.32377000       1.32258000       4.00004000      -0.82251600       0.28848100      -0.50502200
H        3.66807000       2.08431000       3.56275000       0.55160400      -0.63290700       0.33250400
H        2.12717000       1.39240000       4.98580000       0.14557300       0.38631500       0.94962600
O        0.02764150       2.59615000       3.32624000       0.92974200      -0.15494500       0.42201000
H        0.84664800       1.92526000       3.48657000      -1.08382000       0.71157300      -0.71370000
H        0.10780500       4.20578000       3.87630000       0.23574900      -0.38969000      -0.56858800
O        1.96571000       1.47462000       7.03340000       0.35664200      -1.00039000       0.37267100
H        3.34592000       2.19529000       7.54618000       1.38928000       0.45387500       0.80761900
H        1.19017000       1.92776000       7.34786000      -1.07569000       0.73310300       0.40900900
12
Lattice="4.497479 0.0 0.0 -2.2487394999999992 3.894931066987034 0.0 0.0 0.0 7.322382" Properties=species:S:1:pos:R:3:force:R:3 #=T CELL(abcABC):=T 4.49748=T 7.32238=T 90.00000=T 120.00000=T Step:=T 11900=T Bead:=T 0=T positionsangstrom=T cellangstrom=T Polarizability="74.0095913163283 -0.357464069825283 0.983921235207217 -0.37164622017887 70.3744960243881 1.94685090831703 0.980578102962293 1.96119368912177 57.406321762885" energy=-8265.65628916662 pbc="T T T"
O       -0.17632700       2.79830000       0.42528200       0.51246800       0.05493380      -1.01955000
H       -0.20781000       2.78947000       1.40464000      -0.08530150      -0.24481700       0.17286400
H       -0.05894230       4.62481000       0.10132700      -0.14239600      -1.04051000       0.46633600
O        2.19387000       1.04506000       4.08058000      -0.96576000      -0.73780100       0.31633200
H        3.72296000       1.81571000       3.62523000       0.45980900      -0.00333356       0.00911119
H        2.18668000       1.38534000       5.03896000       0.34025500       1.06950000       0.23723500
O       -0.07173590       2.44510000       3.40551000      -0.20725500      -0.79778100       0.91268200
H        0.78386500       1.92949000       3.55711000       0.00247215       0.44792300      -0.30848100
H       -0.04993710       3.88598000       4.00613000       0.35700200       0.26042400      -1.00366000
O        2.12015000       1.66831000       6.95753000      -0.25867300       0.75926900       0.79509200
H        3.50851000       2.33017000       7.41667000      -0.03310310       0.29675100       0.48464000
H        1.22074000       2.13220000       7.21281000       0.02048240      -0.06456220      -1.06260000
12
Lattice="4.497479 0.0 0.0 -2.2487394999999992 3.894931066987034 0.0 0.0 0.0 7.322382" Properties=species:S:1:pos:R:3:force:R:3 #=T CELL(abcABC):=T 4.49748=T 7.32238=T 90.00000=T 120.00000=T Step:=T 12000=T Bead:=T 0=T positionsangstrom=T cellangstrom=T Polarizability="72.3649765879176 -0.498163662814252 1.8222520685399 -0.498068437751464 68.4422079169744 1.07924892405482 1.81849084592795 1.08315579952421 62.9995657653385" energy=-8265.719221514099 pbc="T T T"
O       -0.12889400       2.86469000       0.28589000       0.51814400       0.22062900       0.02575160