12
Lattice="4.497479 0.0 0.0 -2.2487394999999992 3.894931066987034 0.0 0.0 0.0 7.322382" Properties=species:S:1:pos:R:3:force:R:3 #=T CELL(abcABC):=T 4.49748=T 7.32238=T 90.00000=T 120.00000=T Step:=T 10100=T Bead:=T 0=T positionsangstrom=T cellangstrom=T Polarizability="77.4386031067699 -1.0942439469589 -0.594482300901944 -1.08811483355835 73.5360974681246 2.31049443205541 -0.583668856554758 2.30943543757378 60.3532498457977" energy=-8265.748261909963 pbc="T T T"
O       -0.29818800       2.83101000       0.44927700      -1.12161000       0.19320000       2.06305000
H       -0.06859010       2.75318000       1.43675000       1.94579000       0.76512100      -1.79979000
H       -0.45809500       4.50419000       0.04271720      -0.43492000       2.27503000      -0.20859800
O        2.38818000       1.10623000       3.99399000      -2.35497000      -0.97666500       1.71639000
H        3.77405000       1.89298000       3.60645000       2.28043000       2.52880000      -0.92814800
H        2.39898000       1.14839000       5.00162000       0.03179940      -1.32721000      -0.50028300
O        0.09857290       2.47178000       3.24851000      -0.36451300       4.01112000      -0.99664200
H        0.93483000       1.93237000       3.47295000       3.14343000      -3.15841000      -0.08525470
H        0.05259400       3.98556000       3.67045000      -2.94162000      -1.35228000       1.05816000
O        1.88728000       1.57264000       7.18568000       1.17819000      -2.60823000      -0.14797000
H        3.32957000       2.22855000       7.62116000      -0.87251300      -0.49627300      -0.68526200
H        0.98581900       2.05299000       7.37513000      -0.48950400       0.14578100       0.51434400
12
Lattice="4.497479 0.0 0.0 -2.2487394999999992 3.894931066987034 0.0 0.0 0.0 7.322382" Properties=species:S:1:pos:R:3:force:R:3 #=T CELL(abcABC):=T 4.49748=T 7.32238=T 90.00000=T 120.00000=T Step:=T 11000=T Bead:=T 0=T positionsangstrom=T cellangstrom=T Polarizability="70.7987888672152 -0.924742322542633 0.912203106778217 -0.930382981164534 67.8361880792326 1.27012476147823 0.911809477844008 1.26595809955728 58.1161453755629" energy=-8265.707295131939 pbc="T T T"
O       -0.30079100       2.57271000       0.53358800      -1.65383000      -0.71989500      -1.04885000
H       -0.37490500       2.55786000       1.55025000       0.24179000       0.17811000       0.84250900
H       -0.25547300       4.34644000      -0.05733910       0.10563900      -0.97959400       0.11446800
O        2.32028000       1.34225000       4.05660000       0.42751100      -0.26989000       0.14848600
H        3.84400000       2.01054000       3.74239000      -0.53670800       0.14298900       0.38509200
H        2.14094000       1.36800000       5.05986000      -0.93588600      -0.58848700      -0.95520500
O       -0.01018610       2.68629000       3.32953000      -0.06257820       0.92912400      -0.48074100
H        0.88250200       2.36629000       3.46685000       0.67647700      -0.60089200      -0.03930840
H       -0.06349170       4.27303000       3.73383000       0.48842600       0.36851400       0.95374700
O        2.07476000       1.35918000       6.95524000      -0.61588700       0.75367500       0.76944000
H        3.40850000       2.08814000       7.47121000       1.12797000       0.70338200      -0.21545400
H        1.23654000       1.82493000       7.29989000       0.73707700       0.08296370      -0.47418500
12
Lattice="4.497479 0.0 0.0 -2.2487394999999992 3.894931066987034 0.0 0.0 0.0 7.322382" Properties=species:S:1:pos:R:3:force:R:3 #=T CELL(abcABC):=T 4.49748=T 7.32238=T 90.00000=T 120.00000=T Step:=T 11900=T Bead:=T 0=T positionsangstrom=T cellangstrom=T Polarizability="74.0095913163283 -0.357464069825283 0.983921235207217 -0.37164622017887 70.3744960243881 1.94685090831703 0.980578102962293 1.96119368912177 57.406321762885" energy=-8265.65628916662 pbc="T T T"
O       -0.17632700       2.79830000       0.42528200       0.51246800       0.05493380      -1.01955000
H       -0.20781000       2.78947000       1.40464000      -0.08530150      -0.24481700       0.17286400
H       -0.05894230       4.62481000       0.10132700      -0.14239600      -1.04051000       0.46633600
O        2.19387000       1.04506000       4.08058000      -0.96576000      -0.73780100       0.31633200
H        3.72296000       1.81571000       3.62523000       0.45980900      -0.00333356       0.00911119
H        2.18668000       1.38534000       5.03896000       0.34025500       1.06950000       0.23723500
O       -0.07173590       2.44510000       3.40551000      -0.20725500      -0.79778100       0.91268200
H        0.78386500       1.92949000       3.55711000       0.00247215       0.44792300      -0.30848100
H       -0.04993710       3.88598000       4.00613000       0.35700200       0.26042400      -1.00366000
O        2.12015000       1.66831000       6.95753000      -0.25867300       0.75926900       0.79509200
H        3.50851000       2.33017000       7.41667000      -0.03310310       0.29675100       0.48464000
H        1.22074000       2.13220000       7.21281000       0.02048240      -0.06456220      -1.06260000
12
Lattice="4.497479 0.0 0.0 -2.2487394999999992 3.894931066987034 0.0 0.0 0.0 7.322382" Properties=species:S:1:pos:R:3:force:R:3 #=T CELL(abcABC):=T 4.49748=T 7.32238=T 90.00000=T 120.00000=T Step:=T 12800=T Bead:=T 0=T positionsangstrom=T cellangstrom=T Polarizability="72.4706951005608 -0.156291528428603 2.63233103786842 -0.162673620275243 69.585892544031 2.47384502510932 2.62077271818605 2.47336688670878 55.8503047542146" energy=-8265.648283668768 pbc="T T T"
O       -0.08702390       2.66746000       0.45663100       0.65024200       0.99290600       1.67866000
H       -0.19511200       2.70840000       1.44977000       0.92508500      -0.23767500      -0.97374800
H       -0.02004440       4.38415000      -0.07324820      -0.12202100       0.35335400      -0.63056800
O        2.05981000       1.25767000       4.09255000       1.03047000      -2.10352000      -0.35460400
H        3.57884000       2.08004000       3.73492000      -0.18227100       0.03392790       0.39943900
H        1.94375000       1.06098000       5.04670000      -0.73981500       0.22927900      -0.47506100
O       -0.18454700       2.62392000       3.45613000      -0.15631400       0.76098900      -0.47186600
H        0.61427900       2.15719000       3.75448000       0.46563500      -0.39493700      -0.20866600
H       -0.16764400       4.15488000       3.77098000      -0.76814200       1.56286000       0.88718400
O        2.29538000       1.43023000       6.86815000       0.27916400      -0.98667200       0.74365100
H        3.61619000       2.05217000       7.45137000      -1.58286000      -0.56053800      -0.81337600
H        1.45543000       1.93827000       7.15551000       0.20082500       0.35002000       0.21896100
12
Lattice="4.497479 0.0 0.0 -2.2487394999999992 3.894931066987034 0.0 0.0 0.0 7.322382" Properties=species:S:1:pos:R:3:force:R:3 #=T CELL(abcABC):=T 4.49748=T 7.32238=T 90.00000=T 120.00000=T Step:=T 13700=T Bead:=T 0=T positionsangstrom=T cellangstrom=T Polarizability="71.0811191159693 -0.172575288085206 0.68161613699039 -0.163081320440275 73.0075325151828 2.54337528405143 0.681586974497583 2.53675853700819 56.827922159291" energy=-8265.664510097675 pbc="T T T"
O       -0.09220320       2.57455000       0.39553000      -0.88111800      -0.66567400      -0.00250890
H       -0.09485490       2.51751000       1.35898000       0.53618600      -0.01886980      -0.72211000
H       -0.15393600       4.21074000       0.07926030       0.29237000      -0.88173500       0.33651200
O        2.18017000       1.37401000       4.01902000       0.84075800      -1.07598000      -1.03286000
H        3.49032000       2.25998000       3.60015000       1.47945000       0.84048500       0.25121200
H        2.16145000       1.29351000       4.97563000      -0.17330700       0.24811600       0.84347000
O       -0.17495000       2.71282000       3.31749000      -0.92653100      -0.98602700       0.16166800
H        0.65290700       2.18789000       3.52527000      -0.52931300       0.36822500      -0.24622700
H       -0.23895000       4.30374000       3.57052000      -0.93546300       0.58191600       0.22388600
O        2.18249000       1.31411000       7.16150000       0.15225700       0.46949100      -0.24501600
H        3.54739000       2.01883000       7.59215000       0.46451000       0.65044600       0.38099900
H        1.27257000       1.80374000       7.26996000      -0.31979800       0.46961100       0.05097180
12
Lattice="4.497479 0.0 0.0 -2.2487394999999992 3.894931066987034 0.0 0.0 0.0 7.322382" Properties=species:S:1:pos:R:3:force:R:3 #=T CELL(abcABC):=T 4.49748=T 7.32238=T 90.00000=T 120.00000=T Step:=T 14600=T Bead:=T 0=T positionsangstrom=T cellangstrom=T Polarizability="69.1364764475821 -0.186534814944602 -0.369900769601336 -0.179028435860657 74.5321548198776 2.3699450638115 -0.372420214110104 2.37194814348298 54.3055339419788" energy=-8265.565919246314 pbc="T T T"
O       -0.03369000       2.69042000       0.35513200       0.29611800      -0.09512880       0.49279600
H        0.04126030       2.67470000       1.32302000      -0.21905800       0.18106500      -0.27892800
H        0.01169930       4.44351000      -0.03588820       0.20975500       0.63433600      -0.27974500
O        2.10020000       1.13586000       4.16478000      -0.04481770      -0.07786540      -2.40873000
H        3.37854000       2.13802000       3.81599000       0.31773900       0.05541000      -0.16018100
H        2.19324000       1.16838000       5.13315000      -0.01987650      -0.54740600       2.12646000
O       -0.29582700       2.63109000       3.45521000      -0.44447900       0.31514200      -0.34214500
H        0.53250200       2.20188000       3.81228000      -0.00918463      -0.02695840      -0.31658400
H       -0.40457300       4.11346000       3.74627000       0.10459900       0.22032900       1.05087000
O        2.30892000       1.49186000       6.89247000      -1.42455000      -0.26738600      -0.18569800
H        3.64382000       2.24025000       7.42952000       0.02044840      -0.06678290       0.55592800
H        1.49280000       2.03282000       7.15953000       1.21331000      -0.32475300      -0.25404100
12
Lattice="4.497479 0.0 0.0 -2.2487394999999992 3.894931066987034 0.0 0.0 0.0 7.322382" Properties=species:S:1:pos:R:3:force:R:3 #=T CELL(abcABC):=T 4.49748=T 7.32238=T 90.00000=T 120.00000=T Step:=T 15500=T Bead:=T 0=T positionsangstrom=T cellangstrom=T Polarizability="71.4803366342035 -0.166092627968258 -0.0523938949180055 -0.168194256035381 70.4423311380145 2.92214041928034 -0.0473805462877418 2.91634989987961 61.9905911677438" energy=-8265.829316498539 pbc="T T T"
O       -0.08489140       2.67868000       0.31553700       1.90547000       1.15060000      -0.58963300
H       -0.00326183       2.58511000       1.33438000      -0.85435600      -0.07303460       0.31649700
H       -0.04395510       4.34372000      -0.06929420      -0.15815400       0.16948400       0.84853400
O        2.19601000       1.30058000       4.13297000       0.25416600      -1.30717000      -0.94309400
H        3.64951000       1.99494000       3.81493000      -0.09473900      -0.08325930       0.24806700
H        2.18041000       1.29546000       5.13981000       0.00694031       0.22419400       0.70695400
O       -0.10950800       2.60009000       3.51790000       1.16656000       0.99787000      -0.15831200
H        0.76450500       2.13440000       3.81077000      -0.80842300      -0.58318700      -0.44999700
H       -0.11909100       4.24549000       3.83963000      -0.42931000       0.86541100       0.39056000
O        2.06482000       1.38454000       6.89545000      -0.65514400       0.75211800      -0.53317000
H        3.48347000       2.35687000       7.39025000      -0.86622500      -0.94315100       0.25113200
H        1.18692000       1.82417000       7.21443000       0.53321600      -1.16988000      -0.08753810
12
Lattice="4.497479 0.0 0.0 -2.2487394999999992 3.894931066987034 0.0 0.0 0.0 7.322382" Properties=species:S:1:pos:R:3:force:R:3 #=T CELL(abcABC):=T 4.49748=T 7.32238=T 90.00000=T 120.00000=T Step:=T 16400=T Bead:=T 0=T positionsangstrom=T cellangstrom=T Polarizability="69.3827989673693 1.52392502503652 1.13671708746119 1.52171318632786 69.3465648029777 0.481756539365313 1.13965983381051 0.478040255496747 61.9950320907965" energy=-8265.766117013887 pbc="T T T"
O       -0.10973000       2.87008000       0.49702500      -0.52075800       0.14500800       2.01920000
H       -0.08442770       2.68955000       1.50883000      -0.09751500      -0.00556583      -1.55253000
H       -0.14375200       4.39591000      -0.01211250      -0.27805700       0.39099700      -0.24546200
O        2.19510000       1.15546000       4.06005000       0.20572100      -0.93563300       0.96155200
H        3.48781000       1.95714000       3.52596000       0.32975900       0.36800200      -0.38178800
H        2.17273000       1.22749000       5.05508000      -0.11242300      -0.10808400      -0.84369400
O       -0.11902700       2.48750000       3.25400000      -1.06458000       0.02010750      -0.51910600
H        0.69381000       1.88181000       3.46476000       1.20304000      -0.42674700       0.14871800
H        0.04573640       4.05374000       3.82254000      -0.43082300       1.01533000       0.71093500
O        2.09990000       1.47295000       7.05586000       0.51721900      -0.49641300       0.46323000
H        3.61877000       2.33129000       7.58732000      -0.04626590      -0.08523210      -0.12168300
H        1.31072000       1.89247000       7.44195000       0.29468600       0.11822500      -0.63937200
12
Lattice="4.497479 0.0 0.0 -2.2487394999999992 3.894931066987034 0.0 0.0 0.0 7.322382" Properties=species:S:1:pos:R:3:force:R:3 #=T CELL(abcABC):=T 4.49748=T 7.32238=T 90.00000=T 120.00000=T Step:=T 17300=T Bead:=T 0=T positionsangstrom=T cellangstrom=T Polarizability="66.5240196068206 1.04847876870596 -0.383770515318966 1.04509495464698 70.6970284572535 0.755013816832119 -0.37662155547836 0.756343404477765 55.4024986583946" energy=-8265.743005339791 pbc="T T T"
O        0.01637040       2.58907000       0.37441100       0.26908800       0.89960900       0.59173900
H        0.02589660       2.70030000       1.33331000      -0.21136000      -0.86911000      -0.59131400
H        0.12238500       4.18654000      -0.11659200      -0.05496620      -1.08949000       0.13717900
O        1.99404000       1.41239000       4.18497000       0.00418822       0.66002800       0.71219600
H        3.42218000       2.20620000       3.60063000       0.67985200      -0.01882570      -0.29927500
H        2.30463000       1.43247000       5.10868000      -0.10431800      -0.81587900      -1.17548000
O       -0.22723800       2.69826000       3.37824000      -0.17879300      -0.27988600       0.45367200
H        0.56427700       2.22163000       3.74586000      -0.27092500      -0.13473600      -0.07351920
H       -0.21732100       4.27899000       3.92574000       0.04848140       0.45868800       0.37817500
O        2.26796000       1.26186000       6.92784000       0.14154100       0.71268700      -0.15907500
H        3.61931000       2.15911000       7.47426000      -0.17550700       0.12497000      -0.11684000
H        1.49996000       1.63163000       7.34591000      -0.14728200       0.35194500       0.14253800
12
Lattice="4.497479 0.0 0.0 -2.2487394999999992 3.894931066987034 0.0 0.0 0.0 7.322382" Properties=species:S:1:pos:R:3:force:R:3 #=T CELL(abcABC):=T 4.49748=T 7.32238=T 90.00000=T 120.00000=T Step:=T 18200=T Bead:=T 0=T positionsangstrom=T cellangstrom=T Polarizability="64.1682024300879 -0.36799612905915 1.29646869559933 -0.37941635534379 69.4788378386983 1.31423327608431 1.29415075012219 1.31855131628232 54.2409572959253" energy=-8265.603852724827 pbc="T T T"
O       -0.29112000       2.63512000       0.43477200       0.00857420       0.36677400      -0.04339290
H       -0.22480200       2.71390000       1.41555000       0.51521500      -0.18259700       0.14532700
H       -0.13750100       4.38705000       0.05497650      -0.37218100       0.96951800       0.12034000
O        2.22146000       1.27443000       4.02794000       0.36772400       1.10467000      -2.34075000
H        3.80177000       2.13504000       3.54670000      -0.02986580       0.18124000      -0.10757200
H        2.16962000       1.38766000       4.96139000      -0.04838970      -0.21414300       1.98366000
O        0.13965300       2.64127000       3.35301000       0.27714100      -0.36159100       0.60492300
H        0.98626100       2.11346000       3.57341000      -0.85385700       0.68376500       0.14222300
H        0.03533990       4.23585000       3.72130000       0.23730400      -1.31091000       0.01622660
O        2.00594000       1.40035000       7.07667000      -0.70883300       0.00870709       0.06989300
H        3.23328000       2.32527000       7.54949000       0.20818800      -0.61101700      -0.53474100
H        1.08370000       1.68397000       7.16729000       0.39898000      -0.63441800      -0.05614370
12
Lattice="4.497479 0.0 0.0 -2.2487394999999992 3.894931066987034 0.0 0.0 0.0 7.322382" Properties=species:S:1:pos:R:3:force:R:3 #=T CELL(abcABC):=T 4.49748=T 7.32238=T 90.00000=T 120.00000=T Step:=T 19100=T Bead:=T 0=T positionsangstrom=T cellangstrom=T Polarizability="72.3816082009525 -4.83438681374567 -0.766644673518471 -4.84236701814149 72.1867343946798 2.58204049094135 -0.765873159930879 2.59180814887776 58.2296095601955" energy=-8265.458667980161 pbc="T T T"
O       -0.06797820       2.75917000       0.27969900       0.57728600       0.68144200      -0.07380290
H        0.00908332       2.75122000       1.23118000       0.07910350      -0.29037800       0.23831400
H       -0.10492100       4.59580000      -0.05029980      -0.26566300       0.24588800      -1.08653000
O        2.02166000       1.06671000       4.31175000       0.13417700      -0.04295870       0.34902500
H        3.63211000       1.90882000       3.58327000      -0.38147400      -0.76537500       0.04551520
H        2.14218000       1.34187000       5.24595000      -0.62800300      -0.19349100      -0.42686200
O       -0.07105730       2.53946000       3.40168000       1.62193000       0.57100200      -0.92215600
H        0.81312300       2.08853000       3.75355000      -0.99431100       0.01730830       0.89005600
H       -0.32162000       3.97968000       4.11450000       0.15076900       0.45974500       0.05978680
O        2.19921000       1.58825000       6.87758000      -0.29704500      -0.37453900       0.49149200
H        3.45942000       2.38948000       7.38802000      -0.84815200      -0.14004200      -0.20231400
H        1.22460000       1.88839000       7.06809000       0.85137900      -0.16860000       0.63748000
12
Lattice="4.497479 0.0 0.0 -2.2487394999999992 3.894931066987034 0.0 0.0 0.0 7.322382" Properties=species:S:1:pos:R:3:force:R:3 #=T CELL(abcABC):=T 4.49748=T 7.32238=T 90.00000=T 120.00000=T Step:=T 20000=T Bead:=T 0=T positionsangstrom=T cellangstrom=T Polarizability="74.3323867382608 -3.1753528139387 -1.37452009946271 -3.18327455215418 70.3538880172808 1.88296065433118 -1.37415396908759 1.88625279331506 60.6102216564234" energy=-8265.751820866488 pbc="T T T"
O       -0.20826200       2.58195000       0.43744800      -0.26130600       0.04297560      -0.47350300
H       -0.17162900       2.56185000       1.47084000      -0.23420900      -0.19993400      -0.26448300
H       -0.22662700       4.26117000      -0.13986200       0.18858400      -0.40417800       0.26603700
O        2.17647000       1.35322000       4.07963000       0.11898600      -0.26704600       0.66985300
H        3.67403000       2.04730000       3.60046000       0.52353800       0.34291000       0.09917560
H        2.27262000       1.45405000       5.04446000      -0.14663100       0.34168700      -0.78095500
O       -0.03928590       2.72343000       3.39573000       0.14043000      -0.45091500       0.31688100
H        0.82964600       2.30027000       3.67610000      -0.87261300      -0.11326900      -0.06836010
H       -0.20189600       4.22916000       3.90464000       0.00497623       0.29974700      -0.25042500
O        2.14897000       1.31764000       6.96904000       0.24367300      -0.18379200      -0.14149700
H        3.53779000       1.97582000       7.45778000       1.17650000       0.26369700       0.56648000
H        1.20269000       1.75437000       7.14303000      -0.88192900       0.32811700       0.06079670
12
Lattice="4.497479 0.0 0.0 -2.2487394999999992 3.894931066987034 0.0 0.0 0.0 7.322382" Properties=species:S:1:pos:R:3:force:R:3 #=T CELL(abcABC):=T 4.49748=T 7.32238=T 90.00000=T 120.00000=T Step:=T 20900=T Bead:=T 0=T positionsangstrom=T cellangstrom=T Polarizability="71.7042089865115 -2.21248490351041 1.02211664474965 -2.22052852876267 70.7634981951903 2.58192147207994 1.01939003625827 2.58278006907735 58.2739031685292" energy=-8265.876987557864 pbc="T T T"
O       -0.14823000       2.72039000       0.41995700       0.09286140       0.78885600       2.37131000
H       -0.16437300       2.68135000       1.45398000       0.67183500      -0.30521300      -1.06393000
H       -0.24165400       4.39140000       0.16524700      -0.34346200       0.71037500      -0.34514600
O        2.15990000       1.23477000       4.00132000      -0.04818330      -0.17413600       1.54017000
H        3.73981000       2.01689000       3.64961000      -0.61766500      -0.32124300       0.45186400
H        2.15854000       1.17133000       5.00411000       0.03539130       0.20935000      -1.27749000
O       -0.03977830       2.61500000       3.29953000       0.65195800       0.73118500      -0.46949700
H        0.79620500       2.10767000       3.57742000      -0.43156000      -0.21111300      -0.42379200
H       -0.10386200       4.13926000       3.71705000       0.22156000      -0.20526700       0.22938200
O        2.10732000       1.41110000       7.14540000       0.45631600      -0.86175300      -0.20293700
H        3.49814000       2.14900000       7.53439000      -1.18424000      -0.41726200      -0.36998000
H        1.21285000       1.84759000       7.30403000       0.49519100       0.05622130      -0.43995100
12
Lattice="4.497479 0.0 0.0 -2.2487394999999992 3.894931066987034 0.0 0.0 0.0 7.322382" Properties=species:S:1:pos:R:3:force:R:3 #=T CELL(abcABC):=T 4.49748=T 7.32238=T 90.00000=T 120.00000=T Step:=T 21800=T Bead:=T 0=T positionsangstrom=T cellangstrom=T Polarizability="69.6022900356243 -3.27043674948212 2.4100120065725 -3.26546502842933 70.5159990238427 0.725094913100201 2.40886706653755 0.724237510130942 62.195013475102" energy=-8265.809927510201 pbc="T T T"
O       -0.12935900       2.44111000       0.47700600       0.31016300      -0.50170600       0.43924900
H       -0.07242400       2.57562000       1.45987000       0.08042200      -0.23705800      -0.06966930
H       -0.25321100       3.98816000       0.04060170       0.41301500      -0.40003900      -0.14268000
O        2.17712000       1.58014000       4.05665000       0.23197900      -0.72559300      -1.02624000
H        3.62110000       2.41149000       3.52318000       0.31767300      -0.06513060       0.24142600
H        2.02253000       1.38941000       5.04699000       0.07758260      -0.65620200       0.03673130
O       -0.06303950       2.89293000       3.21718000      -1.23059000       1.06593000      -0.15970000
H        0.74454300       2.26535000       3.56512000       0.54001400      -0.76361600       0.40193800
H       -0.11386400       4.53402000       3.71168000      -0.04793690       1.25783000       0.71658800
O        2.10652000       1.06039000       7.12358000      -1.46489000       0.11728400       0.27020200
H        3.52568000       1.91901000       7.58884000      -0.43970000       0.52300400      -0.09901810
H        1.23036000       1.52754000       7.33909000       1.21227000       0.38529300      -0.60882700
12
Lattice="4.497479 0.0 0.0 -2.2487394999999992 3.894931066987034 0.0 0.0 0.0 7.322382" Properties=species:S:1:pos:R:3:force:R:3 #=T CELL(abcABC):=T 4.49748=T 7.32238=T 90.00000=T 120.00000=T Step:=T 22700=T Bead:=T 0=T positionsangstrom=T cellangstrom=T Polarizability="78.2152103696916 0.263485122173923 0.300709106682954 0.282212797094712 74.604405438841 2.52205119882024 0.294979370260818 2.51939133468853 58.1098946798996" energy=-8265.707579503767 pbc="T T T"
O       -0.17156200       2.86694000       0.49676500       1.16302000       1.31664000       2.24577000
H       -0.17246500       2.70847000       1.47550000       0.13229600      -0.21103700      -0.90958300
H       -0.20177600       4.59541000       0.05824700       0.23589900      -0.37950600      -0.20007500
O        2.18714000       1.06957000       4.05632000       0.40480600      -0.67641700       1.15420000
H        3.47130000       1.99214000       3.45365000       0.24953100       0.13806700      -0.19508000
H        2.21420000       1.08494000       5.04135000      -0.26187400       0.66447000      -1.27648000
O       -0.06117500       2.39901000       3.22736000      -0.25464800       0.04421820       0.32267400
H        0.61105100       1.72789000       3.60182000      -0.03642440      -0.16347000       0.02079580
H       -0.07850250       3.95101000       3.68458000      -0.01908900       0.22353900      -0.05784700
O        2.14808000       1.64581000       7.09743000       0.70438900      -0.03354240      -0.28862200
H        3.44704000       2.37290000       7.49166000      -2.07726000      -1.13696000      -0.77909800
H        1.23540000       2.07066000       7.41375000      -0.24064200       0.21399300      -0.03665050
12
Lattice="4.497479 0.0 0.0 -2.2487394999999992 3.894931066987034 0.0 0.0 0.0 7.322382" Properties=species:S:1:pos:R:3:force:R:3 #=T CELL(abcABC):=T 4.49748=T 7.32238=T 90.00000=T 120.00000=T Step:=T 23600=T Bead:=T 0=T positionsangstrom=T cellangstrom=T Polarizability="70.2483759696522 -1.58921829389215 0.529193617587835 -1.59132369917793 71.4588092305533 1.91944891289856 0.53298356766934 1.9119062371363 59.4295460100638" energy=-8265.758533765116 pbc="T T T"
O       -0.04880170       2.67986000       0.37737400       1.10737000       0.81882100       0.05162740
H        0.04083000       2.56487000       1.38735000      -0.37504200       0.22776800      -0.51276000
H       -0.17047400       4.27810000      -0.20888400       0.80672200       1.01184000      -0.77450800
O        2.19404000       1.25166000       4.12571000       0.22439600      -1.24472000      -0.14031800
H        3.55550000       2.07379000       3.77690000       0.01752360       0.18350500       0.02653620
H        2.11718000       1.27014000       5.11423000      -0.06237030       0.82789800       0.13403200
O       -0.20530100       2.66467000       3.44285000       0.43396400      -1.01928000      -0.00530091
H        0.64527900       2.18186000       3.67435000      -0.35584500       0.38839800      -0.11177900
H       -0.25508600       4.10763000       3.87030000      -0.26385900       0.93539500      -0.02314290
O        2.14053000       1.39015000       6.92621000      -0.63896700      -1.67676000       1.35232000
H        3.66524000       2.14717000       7.47568000      -0.57670000      -0.88639100       0.31038400
H        1.27719000       1.80026000       7.22170000      -0.31718900       0.43352400      -0.30708700
12
Lattice="4.497479 0.0 0.0 -2.2487394999999992 3.894931066987034 0.0 0.0 0.0 7.322382" Properties=species:S:1:pos:R:3:force:R:3 #=T CELL(abcABC):=T 4.49748=T 7.32238=T 90.00000=T 120.00000=T Step:=T 24500=T Bead:=T 0=T positionsangstrom=T cellangstrom=T Polarizability="67.7103703104419 2.30725195648245 0.061241974465943 2.3149421140262 67.2366394365001 1.82511658357428 0.0602760004535593 1.82333267274523 54.5026271053658" energy=-8265.596691725135 pbc="T T T"
O       -0.19464400       2.34720000       0.17270700      -0.37227000      -0.82806500      -0.93909700
H       -0.23629700       2.40147000       1.17957000      -0.03250490       0.04391710       1.28498000
H       -0.14595500       4.04619000      -0.16222700       0.59129300      -0.93076800       0.11115000
O        2.13064000       1.53902000       4.23514000       0.32346700      -1.26328000      -0.34221800
H        3.52169000       2.53546000       3.69633000       0.40554500      -0.04369610      -0.06817680
H        2.24256000       1.41024000       5.19600000       0.13457200       0.74208700       0.89321500
O       -0.08200570       2.97177000       3.52319000       0.18589300       0.43266700      -0.37212100
H        0.62338000       2.37231000       3.75408000      -1.03791000       0.57361500       0.30386700
H        0.01323520       4.47344000       4.01449000       0.10432700      -0.32753800      -0.52705100
O        2.22953000       1.11727000       6.94962000       0.56677600       0.23034800      -0.75444300
H        3.46648000       1.82282000       7.31240000      -0.04447130       0.16543800       0.28719200
H        1.34217000       1.53762000       7.18573000      -0.82471400       1.20527000       0.12269800
12
Lattice="4.497479 0.0 0.0 -2.2487394999999992 3.894931066987034 0.0 0.0 0.0 7.322382" Properties=species:S:1:pos:R:3:force:R:3 #=T CELL(abcABC):=T 4.49748=T 7.32238=T 90.00000=T 120.00000=T Step:=T 25400=T Bead:=T 0=T positionsangstrom=T cellangstrom=T Polarizability="67.2916580550338 2.07358648776366 1.20851205110238 2.07923250532554 68.0837415610556 1.53965623092348 1.21113844149555 1.53286932006999 55.2132311199387" energy=-8265.75735319116 pbc="T T T"
O       -0.05301270       2.58917000       0.52263700      -0.32212300       0.05370540       0.42049100