12
Lattice="4.497479 0.0 0.0 -2.2487394999999992 3.894931066987034 0.0 0.0 0.0 7.322382" Properties=species:S:1:pos:R:3:force:R:3 #=T CELL(abcABC):=T 4.49748=T 7.32238=T 90.00000=T 120.00000=T Step:=T 10100=T Bead:=T 0=T positionsangstrom=T cellangstrom=T Polarizability="77.4386031067699 -1.0942439469589 -0.594482300901944 -1.08811483355835 73.5360974681246 2.31049443205541 -0.583668856554758 2.30943543757378 60.3532498457977" energy=-8265.748261909963 pbc="T T T"
O       -0.29818800       2.83101000       0.44927700      -1.12161000       0.19320000       2.06305000
H       -0.06859010       2.75318000       1.43675000       1.94579000       0.76512100      -1.79979000
H       -0.45809500       4.50419000       0.04271720      -0.43492000       2.27503000      -0.20859800
O        2.38818000       1.10623000       3.99399000      -2.35497000      -0.97666500       1.71639000
H        3.77405000       1.89298000       3.60645000       2.28043000       2.52880000      -0.92814800
H        2.39898000       1.14839000       5.00162000       0.03179940      -1.32721000      -0.50028300
O        0.09857290       2.47178000       3.24851000      -0.36451300       4.01112000      -0.99664200
H        0.93483000       1.93237000       3.47295000       3.14343000      -3.15841000      -0.08525470
H        0.05259400       3.98556000       3.67045000      -2.94162000      -1.35228000       1.05816000
O        1.88728000       1.57264000       7.18568000       1.17819000      -2.60823000      -0.14797000
H        3.32957000       2.22855000       7.62116000      -0.87251300      -0.49627300      -0.68526200
H        0.98581900       2.05299000       7.37513000      -0.48950400       0.14578100       0.51434400
12
Lattice="4.497479 0.0 0.0 -2.2487394999999992 3.894931066987034 0.0 0.0 0.0 7.322382" Properties=species:S:1:pos:R:3:force:R:3 #=T CELL(abcABC):=T 4.49748=T 7.32238=T 90.00000=T 120.00000=T Step:=T 11900=T Bead:=T 0=T positionsangstrom=T cellangstrom=T Polarizability="74.0095913163283 -0.357464069825283 0.983921235207217 -0.37164622017887 70.3744960243881 1.94685090831703 0.980578102962293 1.96119368912177 57.406321762885" energy=-8265.65628916662 pbc="T T T"
O       -0.17632700       2.79830000       0.42528200       0.51246800       0.05493380      -1.01955000
H       -0.20781000       2.78947000       1.40464000      -0.08530150      -0.24481700       0.17286400
H       -0.05894230       4.62481000       0.10132700      -0.14239600      -1.04051000       0.46633600
O        2.19387000       1.04506000       4.08058000      -0.96576000      -0.73780100       0.31633200
H        3.72296000       1.81571000       3.62523000       0.45980900      -0.00333356       0.00911119
H        2.18668000       1.38534000       5.03896000       0.34025500       1.06950000       0.23723500
O       -0.07173590       2.44510000       3.40551000      -0.20725500      -0.79778100       0.91268200
H        0.78386500       1.92949000       3.55711000       0.00247215       0.44792300      -0.30848100
H       -0.04993710       3.88598000       4.00613000       0.35700200       0.26042400      -1.00366000
O        2.12015000       1.66831000       6.95753000      -0.25867300       0.75926900       0.79509200
H        3.50851000       2.33017000       7.41667000      -0.03310310       0.29675100       0.48464000
H        1.22074000       2.13220000       7.21281000       0.02048240      -0.06456220      -1.06260000
12
Lattice="4.497479 0.0 0.0 -2.2487394999999992 3.894931066987034 0.0 0.0 0.0 7.322382" Properties=species:S:1:pos:R:3:force:R:3 #=T CELL(abcABC):=T 4.49748=T 7.32238=T 90.00000=T 120.00000=T Step:=T 13700=T Bead:=T 0=T positionsangstrom=T cellangstrom=T Polarizability="71.0811191159693 -0.172575288085206 0.68161613699039 -0.163081320440275 73.0075325151828 2.54337528405143 0.681586974497583 2.53675853700819 56.827922159291" energy=-8265.664510097675 pbc="T T T"
O       -0.09220320       2.57455000       0.39553000      -0.88111800      -0.66567400      -0.00250890
H       -0.09485490       2.51751000       1.35898000       0.53618600      -0.01886980      -0.72211000
H       -0.15393600       4.21074000       0.07926030       0.29237000      -0.88173500       0.33651200
O        2.18017000       1.37401000       4.01902000       0.84075800      -1.07598000      -1.03286000
H        3.49032000       2.25998000       3.60015000       1.47945000       0.84048500       0.25121200
H        2.16145000       1.29351000       4.97563000      -0.17330700       0.24811600       0.84347000
O       -0.17495000       2.71282000       3.31749000      -0.92653100      -0.98602700       0.16166800
H        0.65290700       2.18789000       3.52527000      -0.52931300       0.36822500      -0.24622700
H       -0.23895000       4.30374000       3.57052000      -0.93546300       0.58191600       0.22388600
O        2.18249000       1.31411000       7.16150000       0.15225700       0.46949100      -0.24501600
H        3.54739000       2.01883000       7.59215000       0.46451000       0.65044600       0.38099900
H        1.27257000       1.80374000       7.26996000      -0.31979800       0.46961100       0.05097180
12
Lattice="4.497479 0.0 0.0 -2.2487394999999992 3.894931066987034 0.0 0.0 0.0 7.322382" Properties=species:S:1:pos:R:3:force:R:3 #=T CELL(abcABC):=T 4.49748=T 7.32238=T 90.00000=T 120.00000=T Step:=T 15500=T Bead:=T 0=T positionsangstrom=T cellangstrom=T Polarizability="71.4803366342035 -0.166092627968258 -0.0523938949180055 -0.168194256035381 70.4423311380145 2.92214041928034 -0.0473805462877418 2.91634989987961 61.9905911677438" energy=-8265.829316498539 pbc="T T T"
O       -0.08489140       2.67868000       0.31553700       1.90547000       1.15060000      -0.58963300
H       -0.00326183       2.58511000       1.33438000      -0.85435600      -0.07303460       0.31649700
H       -0.04395510       4.34372000      -0.06929420      -0.15815400       0.16948400       0.84853400
O        2.19601000       1.30058000       4.13297000       0.25416600      -1.30717000      -0.94309400
H        3.64951000       1.99494000       3.81493000      -0.09473900      -0.08325930       0.24806700
H        2.18041000       1.29546000       5.13981000       0.00694031       0.22419400       0.70695400
O       -0.10950800       2.60009000       3.51790000       1.16656000       0.99787000      -0.15831200
H        0.76450500       2.13440000       3.81077000      -0.80842300      -0.58318700      -0.44999700
H       -0.11909100       4.24549000       3.83963000      -0.42931000       0.86541100       0.39056000
O        2.06482000       1.38454000       6.89545000      -0.65514400       0.75211800      -0.53317000
H        3.48347000       2.35687000       7.39025000      -0.86622500      -0.94315100       0.25113200
H        1.18692000       1.82417000       7.21443000       0.53321600      -1.16988000      -0.08753810
12
Lattice="4.497479 0.0 0.0 -2.2487394999999992 3.894931066987034 0.0 0.0 0.0 7.322382" Properties=species:S:1:pos:R:3:force:R:3 #=T CELL(abcABC):=T 4.49748=T 7.32238=T 90.00000=T 120.00000=T Step:=T 17300=T Bead:=T 0=T positionsangstrom=T cellangstrom=T Polarizability="66.5240196068206 1.04847876870596 -0.383770515318966 1.04509495464698 70.6970284572535 0.755013816832119 -0.37662155547836 0.756343404477765 55.4024986583946" energy=-8265.743005339791 pbc="T T T"
O        0.01637040       2.58907000       0.37441100       0.26908800       0.89960900       0.59173900
H        0.02589660       2.70030000       1.33331000      -0.21136000      -0.86911000      -0.59131400
H        0.12238500       4.18654000      -0.11659200      -0.05496620      -1.08949000       0.13717900
O        1.99404000       1.41239000       4.18497000       0.00418822       0.66002800       0.71219600
H        3.42218000       2.20620000       3.60063000       0.67985200      -0.01882570      -0.29927500
H        2.30463000       1.43247000       5.10868000      -0.10431800      -0.81587900      -1.17548000
O       -0.22723800       2.69826000       3.37824000      -0.17879300      -0.27988600       0.45367200
H        0.56427700       2.22163000       3.74586000      -0.27092500      -0.13473600      -0.07351920
H       -0.21732100       4.27899000       3.92574000       0.04848140       0.45868800       0.37817500
O        2.26796000       1.26186000       6.92784000       0.14154100       0.71268700      -0.15907500
H        3.61931000       2.15911000       7.47426000      -0.17550700       0.12497000      -0.11684000
H        1.49996000       1.63163000       7.34591000      -0.14728200       0.35194500       0.14253800
12
Lattice="4.497479 0.0 0.0 -2.2487394999999992 3.894931066987034 0.0 0.0 0.0 7.322382" Properties=species:S:1:pos:R:3:force:R:3 #=T CELL(abcABC):=T 4.49748=T 7.32238=T 90.00000=T 120.00000=T Step:=T 19100=T Bead:=T 0=T positionsangstrom=T cellangstrom=T Polarizability="72.3816082009525 -4.83438681374567 -0.766644673518471 -4.84236701814149 72.1867343946798 2.58204049094135 -0.765873159930879 2.59180814887776 58.2296095601955" energy=-8265.458667980161 pbc="T T T"
O       -0.06797820       2.75917000       0.27969900       0.57728600       0.68144200      -0.07380290
H        0.00908332       2.75122000       1.23118000       0.07910350      -0.29037800       0.23831400
H       -0.10492100       4.59580000      -0.05029980      -0.26566300       0.24588800      -1.08653000
O        2.02166000       1.06671000       4.31175000       0.13417700      -0.04295870       0.34902500
H        3.63211000       1.90882000       3.58327000      -0.38147400      -0.76537500       0.04551520
H        2.14218000       1.34187000       5.24595000      -0.62800300      -0.19349100      -0.42686200
O       -0.07105730       2.53946000       3.40168000       1.62193000       0.57100200      -0.92215600
H        0.81312300       2.08853000       3.75355000      -0.99431100       0.01730830       0.89005600
H       -0.32162000       3.97968000       4.11450000       0.15076900       0.45974500       0.05978680
O        2.19921000       1.58825000       6.87758000      -0.29704500      -0.37453900       0.49149200
H        3.45942000       2.38948000       7.38802000      -0.84815200      -0.14004200      -0.20231400
H        1.22460000       1.88839000       7.06809000       0.85137900      -0.16860000       0.63748000
12
Lattice="4.497479 0.0 0.0 -2.2487394999999992 3.894931066987034 0.0 0.0 0.0 7.322382" Properties=species:S:1:pos:R:3:force:R:3 #=T CELL(abcABC):=T 4.49748=T 7.32238=T 90.00000=T 120.00000=T Step:=T 20900=T Bead:=T 0=T positionsangstrom=T cellangstrom=T Polarizability="71.7042089865115 -2.21248490351041 1.02211664474965 -2.22052852876267 70.7634981951903 2.58192147207994 1.01939003625827 2.58278006907735 58.2739031685292" energy=-8265.876987557864 pbc="T T T"
O       -0.14823000       2.72039000       0.41995700       0.09286140       0.78885600       2.37131000
H       -0.16437300       2.68135000       1.45398000       0.67183500      -0.30521300      -1.06393000
H       -0.24165400       4.39140000       0.16524700      -0.34346200       0.71037500      -0.34514600
O        2.15990000       1.23477000       4.00132000      -0.04818330      -0.17413600       1.54017000
H        3.73981000       2.01689000       3.64961000      -0.61766500      -0.32124300       0.45186400
H        2.15854000       1.17133000       5.00411000       0.03539130       0.20935000      -1.27749000
O       -0.03977830       2.61500000       3.29953000       0.65195800       0.73118500      -0.46949700
H        0.79620500       2.10767000       3.57742000      -0.43156000      -0.21111300      -0.42379200
H       -0.10386200       4.13926000       3.71705000       0.22156000      -0.20526700       0.22938200
O        2.10732000       1.41110000       7.14540000       0.45631600      -0.86175300      -0.20293700
H        3.49814000       2.14900000       7.53439000      -1.18424000      -0.41726200      -0.36998000
H        1.21285000       1.84759000       7.30403000       0.49519100       0.05622130      -0.43995100
12
Lattice="4.497479 0.0 0.0 -2.2487394999999992 3.894931066987034 0.0 0.0 0.0 7.322382" Properties=species:S:1:pos:R:3:force:R:3 #=T CELL(abcABC):=T 4.49748=T 7.32238=T 90.00000=T 120.00000=T Step:=T 22700=T Bead:=T 0=T positionsangstrom=T cellangstrom=T Polarizability="78.2152103696916 0.263485122173923 0.300709106682954 0.282212797094712 74.604405438841 2.52205119882024 0.294979370260818 2.51939133468853 58.1098946798996" energy=-8265.707579503767 pbc="T T T"
O       -0.17156200       2.86694000       0.49676500       1.16302000       1.31664000       2.24577000
H       -0.17246500       2.70847000       1.47550000       0.13229600      -0.21103700      -0.90958300
H       -0.20177600       4.59541000       0.05824700       0.23589900      -0.37950600      -0.20007500
O        2.18714000       1.06957000       4.05632000       0.40480600      -0.67641700       1.15420000
H        3.47130000       1.99214000       3.45365000       0.24953100       0.13806700      -0.19508000
H        2.21420000       1.08494000       5.04135000      -0.26187400       0.66447000      -1.27648000
O       -0.06117500       2.39901000       3.22736000      -0.25464800       0.04421820       0.32267400
H        0.61105100       1.72789000       3.60182000      -0.03642440      -0.16347000       0.02079580
H       -0.07850250       3.95101000       3.68458000      -0.01908900       0.22353900      -0.05784700
O        2.14808000       1.64581000       7.09743000       0.70438900      -0.03354240      -0.28862200
H        3.44704000       2.37290000       7.49166000      -2.07726000      -1.13696000      -0.77909800
H        1.23540000       2.07066000       7.41375000      -0.24064200       0.21399300      -0.03665050
12
Lattice="4.497479 0.0 0.0 -2.2487394999999992 3.894931066987034 0.0 0.0 0.0 7.322382" Properties=species:S:1:pos:R:3:force:R:3 #=T CELL(abcABC):=T 4.49748=T 7.32238=T 90.00000=T 120.00000=T Step:=T 24500=T Bead:=T 0=T positionsangstrom=T cellangstrom=T Polarizability="67.7103703104419 2.30725195648245 0.061241974465943 2.3149421140262 67.2366394365001 1.82511658357428 0.0602760004535593 1.82333267274523 54.5026271053658" energy=-8265.596691725135 pbc="T T T"
O       -0.19464400       2.34720000       0.17270700      -0.37227000      -0.82806500      -0.93909700
H       -0.23629700       2.40147000       1.17957000      -0.03250490       0.04391710       1.28498000
H       -0.14595500       4.04619000      -0.16222700       0.59129300      -0.93076800       0.11115000
O        2.13064000       1.53902000       4.23514000       0.32346700      -1.26328000      -0.34221800
H        3.52169000       2.53546000       3.69633000       0.40554500      -0.04369610      -0.06817680
H        2.24256000       1.41024000       5.19600000       0.13457200       0.74208700       0.89321500
O       -0.08200570       2.97177000       3.52319000       0.18589300       0.43266700      -0.37212100
H        0.62338000       2.37231000       3.75408000      -1.03791000       0.57361500       0.30386700
H        0.01323520       4.47344000       4.01449000       0.10432700      -0.32753800      -0.52705100
O        2.22953000       1.11727000       6.94962000       0.56677600       0.23034800      -0.75444300
H        3.46648000       1.82282000       7.31240000      -0.04447130       0.16543800       0.28719200
H        1.34217000       1.53762000       7.18573000      -0.82471400       1.20527000       0.12269800
12
Lattice="4.497479 0.0 0.0 -2.2487394999999992 3.894931066987034 0.0 0.0 0.0 7.322382" Properties=species:S:1:pos:R:3:force:R:3 #=T CELL(abcABC):=T 4.49748=T 7.32238=T 90.00000=T 120.00000=T Step:=T 26300=T Bead:=T 0=T positionsangstrom=T cellangstrom=T Polarizability="67.2813477112069 -0.445209174169099 2.03810455055823 -0.446395038895689 69.2151256629205 -0.755043798823987 2.0441844229204 -0.761905192696631 63.8737744109325" energy=-8265.635486936466 pbc="T T T"
O       -0.22385300       2.64159000       0.45653500      -0.01118580       0.76245900       0.30351200
H       -0.16294200       2.58167000       1.47723000       0.15013600      -0.23658700      -0.15687100
H       -0.18100000       4.09084000      -0.05868730       0.68488400      -0.08546730      -0.24714100
O        2.26040000       1.38369000       4.11172000       0.26272900      -1.13769000       0.10511300
H        3.73853000       2.10715000       3.55320000      -0.57705800      -0.41839800       0.03251650
H        2.06469000       1.40625000       5.13469000       0.02205520       0.04745480      -0.06923810
O        0.01591720       2.71730000       3.29690000       1.18639000       0.15157100       0.16740600
H        0.80056200       2.17735000       3.43336000      -0.59421200       0.68356100      -0.16778700
H       -0.22161100       4.33261000       3.90315000      -0.33995200       0.86556300       0.18576700
O        2.03646000       1.23981000       7.00866000      -0.20030800       0.09324070      -0.26322900
H        3.46758000       2.14496000       7.46459000      -0.77056900      -0.74533000      -0.14494100
H        1.23558000       1.64563000       7.37760000       0.18709300       0.01962650       0.25489300
12
Lattice="4.497479 0.0 0.0 -2.2487394999999992 3.894931066987034 0.0 0.0 0.0 7.322382" Properties=species:S:1:pos:R:3:force:R:3 #=T CELL(abcABC):=T 4.49748=T 7.32238=T 90.00000=T 120.00000=T Step:=T 28100=T Bead:=T 0=T positionsangstrom=T cellangstrom=T Polarizability="68.4882244512306 -1.53686083471943 2.12580557926082 -1.54858410217574 70.58295522819 0.414723191158444 2.12626259407956 0.416396219168969 58.8001069776713" energy=-8265.778663843674 pbc="T T T"
O       -0.14989000       2.76442000       0.41183600      -1.22182000      -0.94856100      -0.81676500
H       -0.18884400       2.85769000       1.41669000      -0.02908840       0.43116400       0.41235000
H       -0.13486500       4.37984000      -0.01010650      -0.74922300       1.71944000       0.44793700
O        2.06242000       1.19079000       4.07873000      -0.11358500      -0.33431200      -1.43916000
H        3.72663000       1.98599000       3.62303000       0.87914700       0.84965400      -0.28642900
H        2.13109000       1.15283000       5.08555000      -0.18066200       0.72329100       2.04292000
O        0.05903210       2.55847000       3.34835000      -0.45876200      -1.39810000       0.34775700
H        0.90529800       2.03169000       3.57675000      -0.12647900       0.62398700      -0.13979400
H       -0.07455760       4.10335000       3.79130000      -0.04406560      -0.36966700      -0.80600400
O        2.09008000       1.45895000       7.03161000       1.96075000      -1.66707000       0.12437200
H        3.52133000       2.24956000       7.51789000       1.22934000       0.14443400      -0.02779120
H        1.28841000       1.88056000       7.33610000      -1.14555000       0.22574000       0.14060300
12
Lattice="4.497479 0.0 0.0 -2.2487394999999992 3.894931066987034 0.0 0.0 0.0 7.322382" Properties=species:S:1:pos:R:3:force:R:3 #=T CELL(abcABC):=T 4.49748=T 7.32238=T 90.00000=T 120.00000=T Step:=T 29900=T Bead:=T 0=T positionsangstrom=T cellangstrom=T Polarizability="71.6447028626839 -1.984630298711 2.33984636015243 -1.98469252943545 68.6882914365516 0.59904713624723 2.34175313416221 0.600822345755654 56.999609169786" energy=-8265.846982021245 pbc="T T T"
O       -0.44657200       2.73104000       0.44352200       0.66566100       0.09151620       1.28835000
H       -0.30166400       2.76287000       1.43704000      -0.02292190      -0.32072600      -0.59579200
H       -0.44314300       4.36552000      -0.07482960      -0.23284200      -1.15581000      -0.19240700
O        2.33818000       1.23837000       4.07749000      -0.26072500      -1.19796000      -1.15596000
H        3.91594000       2.01400000       3.72506000      -0.94284900       0.25023300       0.36742800
H        2.17315000       1.26472000       5.07226000      -0.00600138      -0.15415400       0.71477200
O        0.17838200       2.59215000       3.40903000       1.52845000      -0.19732000       0.30055600
H        1.01675000       2.07102000       3.59594000      -0.33151400       0.54191100      -0.42771600
H        0.07721600       4.16215000       3.78000000      -0.00623431       0.84820600       0.38899700
O        2.00573000       1.41101000       6.94008000       0.74123700       1.10405000      -0.29962000
H        3.30342000       2.09161000       7.50912000      -0.34562100      -0.17536300      -0.51316100
H        1.20955000       1.91055000       7.29888000      -0.78664000       0.36542200       0.12455900
12
Lattice="4.497479 0.0 0.0 -2.2487394999999992 3.894931066987034 0.0 0.0 0.0 7.322382" Properties=species:S:1:pos:R:3:force:R:3 #=T CELL(abcABC):=T 4.49748=T 7.32238=T 90.00000=T 120.00000=T Step:=T 31700=T Bead:=T 0=T positionsangstrom=T cellangstrom=T Polarizability="74.0584345543543 1.35866287024136 0.842909236509479 1.36127171394718 72.3271467433594 1.84902749418228 0.849188844126286 1.84016416322447 61.6992732981729" energy=-8265.686872064223 pbc="T T T"
O       -0.08007790       2.81316000       0.46491800      -0.11233700      -0.10004000      -1.95963000
H       -0.05022260       2.73549000       1.49669000      -0.44217100       0.11062900       1.24929000
H       -0.09541900       4.41553000      -0.19489600       0.02184390       0.37895400       0.13298300
O        2.17872000       1.12147000       4.03507000       0.18433900       0.18893400       1.12777000
H        3.55190000       2.06587000       3.79449000       0.19668300       0.55578600      -0.73264700
H        2.19440000       1.16189000       5.05884000      -0.14690200      -0.26766400      -0.28978100
O       -0.16030500       2.51370000       3.38391000      -1.55821000      -0.09438220       0.08489510
H        0.71289000       2.03682000       3.51307000       1.71087000      -0.68173100       0.13979700
H       -0.03535950       3.99616000       3.83116000      -0.27556300       0.11229700      -0.13820400
O        2.12935000       1.51856000       6.98823000       0.62288400      -0.38645600       0.44349300
H        3.55092000       2.31189000       7.50442000       0.58153400       0.21377200      -0.04587340
H        1.24943000       2.00899000       7.30803000      -0.78296600      -0.03009800      -0.01209560
12
Lattice="4.497479 0.0 0.0 -2.2487394999999992 3.894931066987034 0.0 0.0 0.0 7.322382" Properties=species:S:1:pos:R:3:force:R:3 #=T CELL(abcABC):=T 4.49748=T 7.32238=T 90.00000=T 120.00000=T Step:=T 33500=T Bead:=T 0=T positionsangstrom=T cellangstrom=T Polarizability="70.2007932411707 1.25140971241284 1.23584671026793 1.24769947655155 74.0775541817711 3.6815230090092 1.23181225953262 3.67613072898867 59.0334894392847" energy=-8265.83666707945 pbc="T T T"
O       -0.10042400       2.75835000       0.51311000       1.98296000       1.39885000       2.23968000
H       -0.16998500       2.59131000       1.52175000       0.22942700      -0.26813200      -0.99526200
H       -0.01121420       4.44391000       0.05348710      -0.08435220      -2.87851000       0.59198600
O        2.13542000       1.21895000       4.07942000       0.68806100       0.22657300       0.27036500
H        3.56165000       2.10842000       3.75169000       0.93789400       0.83892000      -0.81633000
H        2.06036000       1.06673000       5.07421000      -0.12571800      -0.21253100      -0.36727900
O       -0.13075800       2.57585000       3.35893000      -2.11986000      -0.40979200       0.20463400
H        0.68147100       2.10870000       3.70293000       0.71354700      -0.40834300       0.39560000
H       -0.10138900       4.15396000       3.66238000       0.02152030      -0.18232700       0.26386200
O        2.17865000       1.41739000       6.90915000      -0.80224000       3.25829000      -1.18326000
H        3.50518000       2.37503000       7.49207000      -1.81717000      -1.15701000      -0.63984800
H        1.31117000       1.82665000       7.23609000       0.37593000      -0.20599200       0.03584430
12
Lattice="4.497479 0.0 0.0 -2.2487394999999992 3.894931066987034 0.0 0.0 0.0 7.322382" Properties=species:S:1:pos:R:3:force:R:3 #=T CELL(abcABC):=T 4.49748=T 7.32238=T 90.00000=T 120.00000=T Step:=T 35300=T Bead:=T 0=T positionsangstrom=T cellangstrom=T Polarizability="70.1871663684685 -0.448551371571178 2.33136389792863 -0.446201033934219 69.9160883343235 1.0677293933272 2.3277229742439 1.06144582698211 57.8249648011229" energy=-8265.895135650946 pbc="T T T"
O       -0.17870800       2.66547000       0.45047800      -0.57439600      -0.18916800      -1.07016000
H       -0.18497900       2.60908000       1.45872000       0.09227560       0.15745400       1.36578000
H       -0.22689800       4.35872000       0.03251440      -0.30091800       0.35375900      -0.48718400
O        2.25159000       1.22708000       4.01123000      -0.00465306       0.20392600      -2.44629000
H        3.65536000       2.06018000       3.57013000      -0.56544800      -0.52137400      -0.00068840
H        2.08188000       1.23926000       4.97835000      -0.02269810      -0.14567500       2.62854000
O       -0.04928380       2.62564000       3.38179000       0.48768200       0.52011300      -0.51454800
H        0.82193600       2.10629000       3.45835000       0.01133790       0.25158100       0.10892900
H       -0.04769860       4.11825000       3.79117000       0.08843140      -0.41058300       0.11149700
O        2.06150000       1.45483000       7.03818000       0.36522300      -0.08303720       1.12425000
H        3.46294000       2.24197000       7.46184000       0.29188000      -0.16896000       0.03668570
H        1.23962000       1.90166000       7.40912000       0.13128300       0.03196280      -0.85681600
12
Lattice="4.497479 0.0 0.0 -2.2487394999999992 3.894931066987034 0.0 0.0 0.0 7.322382" Properties=species:S:1:pos:R:3:force:R:3 #=T CELL(abcABC):=T 4.49748=T 7.32238=T 90.00000=T 120.00000=T Step:=T 37100=T Bead:=T 0=T positionsangstrom=T cellangstrom=T Polarizability="76.0361992201079 -0.995039406708631 -2.30763714905441 -1.00312001723177 68.0729857031488 2.40119517373366 -2.30238531645738 2.40245496984195 66.7639335989827" energy=-8265.558189502963 pbc="T T T"
O        0.05832290       2.76309000       0.41789400       0.69776000       0.54533800       0.55652600
H        0.08098320       2.59892000       1.45334000      -0.89734200      -0.50319200      -1.27370000
H        0.05849630       4.47766000      -0.07047460       0.06354330      -0.05849620      -0.41914500
O        2.04631000       1.27238000       4.19279000      -0.14084200      -0.15070400       0.01264010
H        3.47852000       1.79763000       3.52674000      -0.58397000      -0.62771900       0.02538120
H        2.12636000       1.28625000       5.22969000       0.07267570      -0.03030710      -0.07229180
O       -0.24973500       2.48348000       3.37234000       0.52229300       0.20847600      -0.29394200
H        0.61638400       2.06330000       3.67318000       0.07144590       0.18463100       0.31461200
H       -0.22054600       4.15128000       3.90861000       0.23323000       0.41115500      -0.07132260
O        2.20058000       1.45659000       6.87284000       1.11766000      -0.67002700       0.12725000
H        3.74839000       2.26759000       7.50018000       0.04180320      -0.09296790       0.74378400
H        1.38375000       1.95264000       7.34879000      -1.19825000       0.78381400       0.35021000
12
Lattice="4.497479 0.0 0.0 -2.2487394999999992 3.894931066987034 0.0 0.0 0.0 7.322382" Properties=species:S:1:pos:R:3:force:R:3 #=T CELL(abcABC):=T 4.49748=T 7.32238=T 90.00000=T 120.00000=T Step:=T 38900=T Bead:=T 0=T positionsangstrom=T cellangstrom=T Polarizability="72.5260718882051 -0.0183881467495011 1.8364353973592 -0.020931415290249 72.9569963388309 1.89298218463922 1.83968786377112 1.89670689025865 59.6313831934709" energy=-8265.70779493697 pbc="T T T"
O       -0.10347200       2.61548000       0.43156300      -0.44102000       0.55139900      -2.60773000
H       -0.16020200       2.56507000       1.46233000      -0.45371600      -0.08350350       2.04048000
H       -0.02670160       4.34956000       0.13489300      -0.10613300      -0.90274600       0.32890200
O        2.04850000       1.35322000       4.08370000       0.01104620       0.33860100      -0.45009900
H        3.63914000       2.15357000       3.83168000      -1.00495000       0.08691770      -0.06298260
H        2.18018000       1.41377000       5.11622000       0.14927800      -0.30605300       0.41181400
O       -0.13426600       2.65180000       3.39536000       2.07631000      -0.78613000       0.20463200
H        0.72407400       2.14569000       3.68463000      -0.22320200       0.46178300      -0.45851900
H       -0.13691700       4.23929000       3.92462000      -0.87391300       0.04203280       0.14924200
O        2.24404000       1.33860000       6.93415000       0.71078000       1.38915000      -0.48843500
H        3.57723000       2.13102000       7.35236000       0.87422500      -0.39113000       0.75383400
H        1.48624000       1.85821000       7.23938000      -0.71870600      -0.40032300       0.17886200
12
Lattice="4.497479 0.0 0.0 -2.2487394999999992 3.894931066987034 0.0 0.0 0.0 7.322382" Properties=species:S:1:pos:R:3:force:R:3 #=T CELL(abcABC):=T 4.49748=T 7.32238=T 90.00000=T 120.00000=T Step:=T 40700=T Bead:=T 0=T positionsangstrom=T cellangstrom=T Polarizability="73.2618247115769 -0.563698446414726 1.6174792522199 -0.561762690217772 70.3087076520406 2.5168975821222 1.61016359066906 2.51549957238806 58.4886034273635" energy=-8265.882287214676 pbc="T T T"
O       -0.00656029       2.71078000       0.38388100       0.25282400      -0.08983620      -2.65560000