12
Lattice="4.497479 0.0 0.0 -2.2487394999999992 3.894931066987034 0.0 0.0 0.0 7.322382" Properties=species:S:1:pos:R:3:force:R:3 #=T CELL(abcABC):=T 4.49748=T 7.32238=T 90.00000=T 120.00000=T Step:=T 10100=T Bead:=T 0=T positionsangstrom=T cellangstrom=T Polarizability="77.4386031067699 -1.0942439469589 -0.594482300901944 -1.08811483355835 73.5360974681246 2.31049443205541 -0.583668856554758 2.30943543757378 60.3532498457977" energy=-8265.748261909963 pbc="T T T"
O       -0.29818800       2.83101000       0.44927700      -1.12161000       0.19320000       2.06305000
H       -0.06859010       2.75318000       1.43675000       1.94579000       0.76512100      -1.79979000
H       -0.45809500       4.50419000       0.04271720      -0.43492000       2.27503000      -0.20859800
O        2.38818000       1.10623000       3.99399000      -2.35497000      -0.97666500       1.71639000
H        3.77405000       1.89298000       3.60645000       2.28043000       2.52880000      -0.92814800
H        2.39898000       1.14839000       5.00162000       0.03179940      -1.32721000      -0.50028300
O        0.09857290       2.47178000       3.24851000      -0.36451300       4.01112000      -0.99664200
H        0.93483000       1.93237000       3.47295000       3.14343000      -3.15841000      -0.08525470
H        0.05259400       3.98556000       3.67045000      -2.94162000      -1.35228000       1.05816000
O        1.88728000       1.57264000       7.18568000       1.17819000      -2.60823000      -0.14797000
H        3.32957000       2.22855000       7.62116000      -0.87251300      -0.49627300      -0.68526200
H        0.98581900       2.05299000       7.37513000      -0.48950400       0.14578100       0.51434400
12
Lattice="4.497479 0.0 0.0 -2.2487394999999992 3.894931066987034 0.0 0.0 0.0 7.322382" Properties=species:S:1:pos:R:3:force:R:3 #=T CELL(abcABC):=T 4.49748=T 7.32238=T 90.00000=T 120.00000=T Step:=T 10500=T Bead:=T 0=T positionsangstrom=T cellangstrom=T Polarizability="70.8558157255479 -1.449998095443 0.829210765433287 -1.45801942822111 70.9471882225939 0.259299030884894 0.828458162731757 0.258487452785671 53.724913313511" energy=-8265.707829406283 pbc="T T T"
O       -0.10870700       2.58769000       0.42224600      -0.72519300      -1.02980000      -1.75076000
H       -0.16680000       2.69623000       1.37198000      -0.06732290       0.25941000       1.04937000
H       -0.01663920       4.19999000      -0.17272000       0.36206200      -1.02901000       0.79489500
O        2.00623000       1.37165000       4.03688000       0.81571000      -0.95735100      -2.67670000
H        3.47774000       2.23021000       3.54401000      -2.23244000      -0.01833730       0.60410200
H        2.14419000       1.47312000       4.99319000      -0.14228300       0.24915300       1.98877000
O       -0.19526700       2.71153000       3.35217000       1.70020000      -1.19436000      -0.20433900
H        0.62904100       2.21022000       3.68067000       0.65375200       1.18624000      -0.10461100
H       -0.18920700       4.25854000       3.82437000      -0.75696300       0.76712500       0.16800200
O        2.37410000       1.30401000       7.07794000       2.02144000      -0.32809600      -0.98253800
H        3.61142000       1.92764000       7.45069000       0.42512700       0.67069800       0.48772900
H        1.45113000       1.60970000       7.34805000      -2.05409000       1.42434000       0.62608400
12
Lattice="4.497479 0.0 0.0 -2.2487394999999992 3.894931066987034 0.0 0.0 0.0 7.322382" Properties=species:S:1:pos:R:3:force:R:3 #=T CELL(abcABC):=T 4.49748=T 7.32238=T 90.00000=T 120.00000=T Step:=T 11000=T Bead:=T 0=T positionsangstrom=T cellangstrom=T Polarizability="70.7987888672152 -0.924742322542633 0.912203106778217 -0.930382981164534 67.8361880792326 1.27012476147823 0.911809477844008 1.26595809955728 58.1161453755629" energy=-8265.707295131939 pbc="T T T"
O       -0.30079100       2.57271000       0.53358800      -1.65383000      -0.71989500      -1.04885000
H       -0.37490500       2.55786000       1.55025000       0.24179000       0.17811000       0.84250900
H       -0.25547300       4.34644000      -0.05733910       0.10563900      -0.97959400       0.11446800
O        2.32028000       1.34225000       4.05660000       0.42751100      -0.26989000       0.14848600
H        3.84400000       2.01054000       3.74239000      -0.53670800       0.14298900       0.38509200
H        2.14094000       1.36800000       5.05986000      -0.93588600      -0.58848700      -0.95520500
O       -0.01018610       2.68629000       3.32953000      -0.06257820       0.92912400      -0.48074100
H        0.88250200       2.36629000       3.46685000       0.67647700      -0.60089200      -0.03930840
H       -0.06349170       4.27303000       3.73383000       0.48842600       0.36851400       0.95374700
O        2.07476000       1.35918000       6.95524000      -0.61588700       0.75367500       0.76944000
H        3.40850000       2.08814000       7.47121000       1.12797000       0.70338200      -0.21545400
H        1.23654000       1.82493000       7.29989000       0.73707700       0.08296370      -0.47418500
12
Lattice="4.497479 0.0 0.0 -2.2487394999999992 3.894931066987034 0.0 0.0 0.0 7.322382" Properties=species:S:1:pos:R:3:force:R:3 #=T CELL(abcABC):=T 4.49748=T 7.32238=T 90.00000=T 120.00000=T Step:=T 11400=T Bead:=T 0=T positionsangstrom=T cellangstrom=T Polarizability="74.8722863553398 2.75335184300471 0.196486916750411 2.75092753918839 76.7737952790484 2.43337891016719 0.190441656059606 2.42573317710826 58.1754115096585" energy=-8265.694369139714 pbc="T T T"
O        0.06110320       2.70798000       0.29979100       0.94842900       0.22011200       1.88733000
H       -0.00254876       2.54349000       1.27301000       0.18949000       0.41590800      -1.10312000
H        0.13812900       4.29847000       0.05354710      -0.32419400      -0.79564300       0.43425500
O        1.97217000       1.23653000       4.13610000      -0.10841900       1.46679000      -1.48705000
H        3.29748000       2.23773000       3.71894000       0.72681400       0.27660300       0.20797200
H        2.09231000       1.23535000       5.11661000      -0.28897100      -0.33164700       0.73836000
O       -0.27423100       2.63594000       3.45986000       0.34324000      -1.13504000       0.12773300
H        0.50492400       2.14851000       3.85005000      -1.02442000       0.69213400      -0.22250700
H       -0.20938300       4.19790000       3.72538000       0.11540600      -0.98497200       0.30349100
O        2.30962000       1.38734000       6.97753000      -0.76986600       1.40075000       0.26585500
H        3.77957000       2.15330000       7.25691000      -0.87210400      -0.32643400      -0.93865600
H        1.46258000       1.90355000       7.29911000       1.06459000      -0.89855400      -0.21366700
12
Lattice="4.497479 0.0 0.0 -2.2487394999999992 3.894931066987034 0.0 0.0 0.0 7.322382" Properties=species:S:1:pos:R:3:force:R:3 #=T CELL(abcABC):=T 4.49748=T 7.32238=T 90.00000=T 120.00000=T Step:=T 11900=T Bead:=T 0=T positionsangstrom=T cellangstrom=T Polarizability="74.0095913163283 -0.357464069825283 0.983921235207217 -0.37164622017887 70.3744960243881 1.94685090831703 0.980578102962293 1.96119368912177 57.406321762885" energy=-8265.65628916662 pbc="T T T"
O       -0.17632700       2.79830000       0.42528200       0.51246800       0.05493380      -1.01955000
H       -0.20781000       2.78947000       1.40464000      -0.08530150      -0.24481700       0.17286400
H       -0.05894230       4.62481000       0.10132700      -0.14239600      -1.04051000       0.46633600
O        2.19387000       1.04506000       4.08058000      -0.96576000      -0.73780100       0.31633200
H        3.72296000       1.81571000       3.62523000       0.45980900      -0.00333356       0.00911119
H        2.18668000       1.38534000       5.03896000       0.34025500       1.06950000       0.23723500
O       -0.07173590       2.44510000       3.40551000      -0.20725500      -0.79778100       0.91268200
H        0.78386500       1.92949000       3.55711000       0.00247215       0.44792300      -0.30848100
H       -0.04993710       3.88598000       4.00613000       0.35700200       0.26042400      -1.00366000
O        2.12015000       1.66831000       6.95753000      -0.25867300       0.75926900       0.79509200
H        3.50851000       2.33017000       7.41667000      -0.03310310       0.29675100       0.48464000
H        1.22074000       2.13220000       7.21281000       0.02048240      -0.06456220      -1.06260000
12
Lattice="4.497479 0.0 0.0 -2.2487394999999992 3.894931066987034 0.0 0.0 0.0 7.322382" Properties=species:S:1:pos:R:3:force:R:3 #=T CELL(abcABC):=T 4.49748=T 7.32238=T 90.00000=T 120.00000=T Step:=T 12300=T Bead:=T 0=T positionsangstrom=T cellangstrom=T Polarizability="69.0330694730548 1.18403207664139 1.20750841361319 1.1795833872672 71.1523693856868 1.36030031479906 1.20909869543698 1.36679073057527 60.4119901260458" energy=-8265.826714065437 pbc="T T T"
O       -0.27654200       2.72483000       0.45665000      -1.35715000       0.25420000       0.23340500
H       -0.20607500       2.79235000       1.44108000       0.53240100      -0.14093400      -0.07750580
H       -0.15563600       4.43159000      -0.06586760      -0.20462000       0.86030400      -0.20435100
O        2.26199000       1.18062000       4.12140000      -0.14389300      -1.56849000       1.88697000
H        3.72995000       2.06504000       3.66889000       0.26553100       0.09765160       0.13580700
H        2.19215000       1.37644000       5.13772000      -0.06446170      -0.27978700      -1.76962000
O        0.04667140       2.54824000       3.29635000      -0.58975800       0.64471000      -0.59453200
H        0.88313700       2.00247000       3.52822000       0.22108900      -0.17076900       0.34539100
H        0.08116300       4.10399000       3.85725000       0.24602300       1.10333000      -0.08346010
O        2.04539000       1.49301000       6.99783000       0.52083900      -0.73679800       0.56938700
H        3.28073000       2.40997000       7.56684000       0.33390800       0.19074800      -0.12031200
H        1.11708000       1.87125000       7.17616000       0.24009500      -0.25416500      -0.32118000
12
Lattice="4.497479 0.0 0.0 -2.2487394999999992 3.894931066987034 0.0 0.0 0.0 7.322382" Properties=species:S:1:pos:R:3:force:R:3 #=T CELL(abcABC):=T 4.49748=T 7.32238=T 90.00000=T 120.00000=T Step:=T 12800=T Bead:=T 0=T positionsangstrom=T cellangstrom=T Polarizability="72.4706951005608 -0.156291528428603 2.63233103786842 -0.162673620275243 69.585892544031 2.47384502510932 2.62077271818605 2.47336688670878 55.8503047542146" energy=-8265.648283668768 pbc="T T T"
O       -0.08702390       2.66746000       0.45663100       0.65024200       0.99290600       1.67866000
H       -0.19511200       2.70840000       1.44977000       0.92508500      -0.23767500      -0.97374800
H       -0.02004440       4.38415000      -0.07324820      -0.12202100       0.35335400      -0.63056800
O        2.05981000       1.25767000       4.09255000       1.03047000      -2.10352000      -0.35460400
H        3.57884000       2.08004000       3.73492000      -0.18227100       0.03392790       0.39943900
H        1.94375000       1.06098000       5.04670000      -0.73981500       0.22927900      -0.47506100
O       -0.18454700       2.62392000       3.45613000      -0.15631400       0.76098900      -0.47186600
H        0.61427900       2.15719000       3.75448000       0.46563500      -0.39493700      -0.20866600
H       -0.16764400       4.15488000       3.77098000      -0.76814200       1.56286000       0.88718400
O        2.29538000       1.43023000       6.86815000       0.27916400      -0.98667200       0.74365100
H        3.61619000       2.05217000       7.45137000      -1.58286000      -0.56053800      -0.81337600
H        1.45543000       1.93827000       7.15551000       0.20082500       0.35002000       0.21896100
12
Lattice="4.497479 0.0 0.0 -2.2487394999999992 3.894931066987034 0.0 0.0 0.0 7.322382" Properties=species:S:1:pos:R:3:force:R:3 #=T CELL(abcABC):=T 4.49748=T 7.32238=T 90.00000=T 120.00000=T Step:=T 13200=T Bead:=T 0=T positionsangstrom=T cellangstrom=T Polarizability="64.0174628020409 2.91118577697171 0.530666983915332 2.90411181476509 69.3791964479473 0.747737962695854 0.530529117261282 0.748613828099118 54.6695439361513" energy=-8265.581602783546 pbc="T T T"
O       -0.31317600       2.77321000       0.46229300      -0.51620300      -0.62074100      -1.61790000
H       -0.05117990       2.81065000       1.39160000      -0.46044400      -0.40468600       0.94706300
H       -0.26186700       4.40880000       0.01410410      -0.63782200       0.23067500       0.10611400
O        2.41933000       1.15968000       3.96071000      -0.98289700      -0.35453000       1.12622000
H        3.71114000       1.94650000       3.59722000       0.60141200       0.54548000      -0.11490100
H        2.14519000       1.29145000       4.89661000       0.34214300       0.44357500      -0.67422200
O        0.02426990       2.52159000       3.28974000       0.79368300      -0.93433100       1.25883000
H        0.90071000       2.11597000       3.45912000      -0.99305000       0.48753700      -1.13905000
H        0.15814600       4.04551000       3.74231000       0.22728100      -0.01725680      -0.29113700
O        1.94000000       1.50252000       7.17659000       1.45096000      -0.33639200      -0.36425600
H        3.30610000       2.34001000       7.59918000       0.76774300       0.61954100       0.65351900
H        1.12675000       1.93073000       7.33854000      -0.59280400       0.34112900       0.10971500
12
Lattice="4.497479 0.0 0.0 -2.2487394999999992 3.894931066987034 0.0 0.0 0.0 7.322382" Properties=species:S:1:pos:R:3:force:R:3 #=T CELL(abcABC):=T 4.49748=T 7.32238=T 90.00000=T 120.00000=T Step:=T 13700=T Bead:=T 0=T positionsangstrom=T cellangstrom=T Polarizability="71.0811191159693 -0.172575288085206 0.68161613699039 -0.163081320440275 73.0075325151828 2.54337528405143 0.681586974497583 2.53675853700819 56.827922159291" energy=-8265.664510097675 pbc="T T T"
O       -0.09220320       2.57455000       0.39553000      -0.88111800      -0.66567400      -0.00250890
H       -0.09485490       2.51751000       1.35898000       0.53618600      -0.01886980      -0.72211000
H       -0.15393600       4.21074000       0.07926030       0.29237000      -0.88173500       0.33651200
O        2.18017000       1.37401000       4.01902000       0.84075800      -1.07598000      -1.03286000
H        3.49032000       2.25998000       3.60015000       1.47945000       0.84048500       0.25121200
H        2.16145000       1.29351000       4.97563000      -0.17330700       0.24811600       0.84347000
O       -0.17495000       2.71282000       3.31749000      -0.92653100      -0.98602700       0.16166800
H        0.65290700       2.18789000       3.52527000      -0.52931300       0.36822500      -0.24622700
H       -0.23895000       4.30374000       3.57052000      -0.93546300       0.58191600       0.22388600
O        2.18249000       1.31411000       7.16150000       0.15225700       0.46949100      -0.24501600
H        3.54739000       2.01883000       7.59215000       0.46451000       0.65044600       0.38099900
H        1.27257000       1.80374000       7.26996000      -0.31979800       0.46961100       0.05097180
12
Lattice="4.497479 0.0 0.0 -2.2487394999999992 3.894931066987034 0.0 0.0 0.0 7.322382" Properties=species:S:1:pos:R:3:force:R:3 #=T CELL(abcABC):=T 4.49748=T 7.32238=T 90.00000=T 120.00000=T Step:=T 14100=T Bead:=T 0=T positionsangstrom=T cellangstrom=T Polarizability="77.1783603541452 1.4639698569162 1.47688153338442 1.45027978290932 76.3518706271238 1.18961136672367 1.4772240732595 1.185779209619 63.780746873756" energy=-8265.733603834778 pbc="T T T"
O        0.01516190       2.65783000       0.43932200      -0.01997740      -0.75931400       1.69243000
H       -0.06670850       2.70707000       1.44068000      -0.05126380       0.48120400      -1.00058000
H        0.00506484       4.22935000      -0.03867510       0.29184000      -0.99890300       0.33637100
O        2.05393000       1.32347000       4.07387000       0.29479700       0.34915700      -0.39501200
H        3.42517000       2.17726000       3.77936000      -0.05313150      -0.25179300       0.20223200
H        2.07537000       1.24062000       5.12865000       0.09221000      -0.72485300      -0.22195200
O       -0.20106400       2.66942000       3.37651000       0.70367800       0.46832400      -0.47385700
H        0.67465600       2.22503000       3.58911000      -0.83151500      -0.15411000       0.23867600
H       -0.16861300       4.21174000       3.72524000      -0.22270900       0.25195700       0.70936900
O        2.19813000       1.32709000       6.97137000      -0.35722500       0.69003100      -0.40883500
H        3.78456000       2.00097000       7.45864000       0.29380100       0.33267500      -0.23544000
H        1.37320000       1.76725000       7.40424000      -0.14050500       0.31562500      -0.44339700
12
Lattice="4.497479 0.0 0.0 -2.2487394999999992 3.894931066987034 0.0 0.0 0.0 7.322382" Properties=species:S:1:pos:R:3:force:R:3 #=T CELL(abcABC):=T 4.49748=T 7.32238=T 90.00000=T 120.00000=T Step:=T 14600=T Bead:=T 0=T positionsangstrom=T cellangstrom=T Polarizability="69.1364764475821 -0.186534814944602 -0.369900769601336 -0.179028435860657 74.5321548198776 2.3699450638115 -0.372420214110104 2.37194814348298 54.3055339419788" energy=-8265.565919246314 pbc="T T T"
O       -0.03369000       2.69042000       0.35513200       0.29611800      -0.09512880       0.49279600
H        0.04126030       2.67470000       1.32302000      -0.21905800       0.18106500      -0.27892800
H        0.01169930       4.44351000      -0.03588820       0.20975500       0.63433600      -0.27974500
O        2.10020000       1.13586000       4.16478000      -0.04481770      -0.07786540      -2.40873000
H        3.37854000       2.13802000       3.81599000       0.31773900       0.05541000      -0.16018100
H        2.19324000       1.16838000       5.13315000      -0.01987650      -0.54740600       2.12646000
O       -0.29582700       2.63109000       3.45521000      -0.44447900       0.31514200      -0.34214500
H        0.53250200       2.20188000       3.81228000      -0.00918463      -0.02695840      -0.31658400
H       -0.40457300       4.11346000       3.74627000       0.10459900       0.22032900       1.05087000
O        2.30892000       1.49186000       6.89247000      -1.42455000      -0.26738600      -0.18569800
H        3.64382000       2.24025000       7.42952000       0.02044840      -0.06678290       0.55592800
H        1.49280000       2.03282000       7.15953000       1.21331000      -0.32475300      -0.25404100
12
Lattice="4.497479 0.0 0.0 -2.2487394999999992 3.894931066987034 0.0 0.0 0.0 7.322382" Properties=species:S:1:pos:R:3:force:R:3 #=T CELL(abcABC):=T 4.49748=T 7.32238=T 90.00000=T 120.00000=T Step:=T 15000=T Bead:=T 0=T positionsangstrom=T cellangstrom=T Polarizability="67.9150887391493 -1.56373977845663 -2.62415750279944 -1.55592086060097 77.5516139695446 3.02473451066171 -2.61590688325621 3.01778943237285 61.394351534663" energy=-8265.427593894854 pbc="T T T"
O        0.06773870       2.68871000       0.52999700       0.95882900       0.64020300       0.32480800
H        0.07502250       2.45364000       1.53975000      -0.63609400      -0.07287660      -0.68365700
H       -0.00691057       4.25258000       0.18656100      -0.10675300       0.54860500      -0.26090500
O        1.96425000       1.33883000       3.90912000       0.22468200       0.33676200       1.19550000
H        3.33355000       2.18793000       3.44274000      -0.13664600       0.77940500      -0.77405500
H        2.37526000       1.43001000       4.78673000       0.34005300      -1.12861000      -1.42034000
O       -0.25287000       2.60741000       3.25973000      -0.79797900      -1.23292000       0.72576800
H        0.50323900       2.13980000       3.75494000       0.74523300       0.07143170      -0.32247700
H       -0.37352700       4.27150000       3.60542000      -0.23341100       0.87504600       0.44509400
O        2.30137000       1.33511000       7.17820000      -0.33572600      -0.08760480       0.95756700
H        3.62824000       2.36245000       7.61026000      -0.70317700      -0.61107700       0.30400900
H        1.34042000       1.58444000       7.30745000       0.68099000      -0.11836400      -0.49131400
12
Lattice="4.497479 0.0 0.0 -2.2487394999999992 3.894931066987034 0.0 0.0 0.0 7.322382" Properties=species:S:1:pos:R:3:force:R:3 #=T CELL(abcABC):=T 4.49748=T 7.32238=T 90.00000=T 120.00000=T Step:=T 15500=T Bead:=T 0=T positionsangstrom=T cellangstrom=T Polarizability="71.4803366342035 -0.166092627968258 -0.0523938949180055 -0.168194256035381 70.4423311380145 2.92214041928034 -0.0473805462877418 2.91634989987961 61.9905911677438" energy=-8265.829316498539 pbc="T T T"
O       -0.08489140       2.67868000       0.31553700       1.90547000       1.15060000      -0.58963300
H       -0.00326183       2.58511000       1.33438000      -0.85435600      -0.07303460       0.31649700
H       -0.04395510       4.34372000      -0.06929420      -0.15815400       0.16948400       0.84853400
O        2.19601000       1.30058000       4.13297000       0.25416600      -1.30717000      -0.94309400
H        3.64951000       1.99494000       3.81493000      -0.09473900      -0.08325930       0.24806700
H        2.18041000       1.29546000       5.13981000       0.00694031       0.22419400       0.70695400
O       -0.10950800       2.60009000       3.51790000       1.16656000       0.99787000      -0.15831200
H        0.76450500       2.13440000       3.81077000      -0.80842300      -0.58318700      -0.44999700
H       -0.11909100       4.24549000       3.83963000      -0.42931000       0.86541100       0.39056000
O        2.06482000       1.38454000       6.89545000      -0.65514400       0.75211800      -0.53317000
H        3.48347000       2.35687000       7.39025000      -0.86622500      -0.94315100       0.25113200
H        1.18692000       1.82417000       7.21443000       0.53321600      -1.16988000      -0.08753810
12
Lattice="4.497479 0.0 0.0 -2.2487394999999992 3.894931066987034 0.0 0.0 0.0 7.322382" Properties=species:S:1:pos:R:3:force:R:3 #=T CELL(abcABC):=T 4.49748=T 7.32238=T 90.00000=T 120.00000=T Step:=T 15900=T Bead:=T 0=T positionsangstrom=T cellangstrom=T Polarizability="73.0730107379972 -1.0971338126661 -0.282197771929474 -1.08931873243363 70.2117106540791 3.30829645039708 -0.280244515471833 3.31245964090079 60.7342271107613" energy=-8265.880848120874 pbc="T T T"
O       -0.00649495       2.63212000       0.36539200       0.19720100       0.68161800      -0.22134700
H       -0.00789876       2.56112000       1.38053000       0.58008700      -0.13476100       0.53525200
H       -0.04900330       4.42231000      -0.00996162       0.24369100      -1.00265000       0.03869050
O        2.04173000       1.29804000       4.16647000       0.29401700      -0.95394300      -0.23633000
H        3.43461000       2.17098000       3.74997000      -0.06060610      -0.08539330       0.31566900
H        2.20835000       1.35558000       5.20511000       0.00340728       0.36853000       0.60373900
O       -0.22776700       2.60408000       3.37541000      -0.52628600       0.75035400      -0.72886300
H        0.57926400       2.11114000       3.76989000       0.53261300      -0.29002400       0.13740400
H       -0.20202900       4.17722000       3.95385000      -0.31108100       0.31614600       0.11152300
O        2.26423000       1.42516000       6.93911000      -0.58040700       1.07625000       0.31397800
H        3.66041000       2.14094000       7.43458000      -0.61253500      -0.51784900      -0.78776200
H        1.39121000       1.91227000       7.23643000       0.23989800      -0.20827100      -0.08195170
12
Lattice="4.497479 0.0 0.0 -2.2487394999999992 3.894931066987034 0.0 0.0 0.0 7.322382" Properties=species:S:1:pos:R:3:force:R:3 #=T CELL(abcABC):=T 4.49748=T 7.32238=T 90.00000=T 120.00000=T Step:=T 16400=T Bead:=T 0=T positionsangstrom=T cellangstrom=T Polarizability="69.3827989673693 1.52392502503652 1.13671708746119 1.52171318632786 69.3465648029777 0.481756539365313 1.13965983381051 0.478040255496747 61.9950320907965" energy=-8265.766117013887 pbc="T T T"
O       -0.10973000       2.87008000       0.49702500      -0.52075800       0.14500800       2.01920000
H       -0.08442770       2.68955000       1.50883000      -0.09751500      -0.00556583      -1.55253000
H       -0.14375200       4.39591000      -0.01211250      -0.27805700       0.39099700      -0.24546200
O        2.19510000       1.15546000       4.06005000       0.20572100      -0.93563300       0.96155200
H        3.48781000       1.95714000       3.52596000       0.32975900       0.36800200      -0.38178800
H        2.17273000       1.22749000       5.05508000      -0.11242300      -0.10808400      -0.84369400
O       -0.11902700       2.48750000       3.25400000      -1.06458000       0.02010750      -0.51910600
H        0.69381000       1.88181000       3.46476000       1.20304000      -0.42674700       0.14871800
H        0.04573640       4.05374000       3.82254000      -0.43082300       1.01533000       0.71093500
O        2.09990000       1.47295000       7.05586000       0.51721900      -0.49641300       0.46323000
H        3.61877000       2.33129000       7.58732000      -0.04626590      -0.08523210      -0.12168300
H        1.31072000       1.89247000       7.44195000       0.29468600       0.11822500      -0.63937200
12
Lattice="4.497479 0.0 0.0 -2.2487394999999992 3.894931066987034 0.0 0.0 0.0 7.322382" Properties=species:S:1:pos:R:3:force:R:3 #=T CELL(abcABC):=T 4.49748=T 7.32238=T 90.00000=T 120.00000=T Step:=T 16800=T Bead:=T 0=T positionsangstrom=T cellangstrom=T Polarizability="68.9929759387753 0.6811949291477 1.79496432414871 0.681361002452366 69.9341008363925 0.577580959379998 1.79474667393951 0.587526484629749 61.2833995807508" energy=-8265.747098570662 pbc="T T T"
O       -0.12795300       2.51825000       0.45764700       0.43286100      -0.35118100       1.23413000
H       -0.17451000       2.65798000       1.44069000       0.21814800       0.17482000      -0.91010100
H       -0.10901000       4.12577000      -0.05663070      -0.14053200       1.28197000      -0.52760600
O        2.05639000       1.45544000       4.18851000      -0.39991700       0.89419100       0.84223000
H        3.63300000       2.25819000       3.52736000       1.25756000      -0.01625270      -0.55429200
H        2.17377000       1.56158000       5.13845000       0.13475900      -0.17561200      -0.65055400
O       -0.03191580       2.72855000       3.22034000      -1.39109000      -0.20411000       0.64545900
H        0.77966300       2.18322000       3.51642000       0.15595300       0.01650740      -0.06916700
H       -0.04715250       4.37130000       4.07972000       0.16266400      -0.33977400      -0.18826500
O        2.17373000       1.25061000       6.99787000       1.20875000      -2.23876000       0.20552100
H        3.45501000       2.05010000       7.52910000      -0.62316600       0.29497800      -0.60183000
H        1.32711000       1.74719000       7.25974000      -1.01599000       0.66322700       0.57447700
12
Lattice="4.497479 0.0 0.0 -2.2487394999999992 3.894931066987034 0.0 0.0 0.0 7.322382" Properties=species:S:1:pos:R:3:force:R:3 #=T CELL(abcABC):=T 4.49748=T 7.32238=T 90.00000=T 120.00000=T Step:=T 17300=T Bead:=T 0=T positionsangstrom=T cellangstrom=T Polarizability="66.5240196068206 1.04847876870596 -0.383770515318966 1.04509495464698 70.6970284572535 0.755013816832119 -0.37662155547836 0.756343404477765 55.4024986583946" energy=-8265.743005339791 pbc="T T T"
O        0.01637040       2.58907000       0.37441100       0.26908800       0.89960900       0.59173900
H        0.02589660       2.70030000       1.33331000      -0.21136000      -0.86911000      -0.59131400
H        0.12238500       4.18654000      -0.11659200      -0.05496620      -1.08949000       0.13717900
O        1.99404000       1.41239000       4.18497000       0.00418822       0.66002800       0.71219600
H        3.42218000       2.20620000       3.60063000       0.67985200      -0.01882570      -0.29927500
H        2.30463000       1.43247000       5.10868000      -0.10431800      -0.81587900      -1.17548000
O       -0.22723800       2.69826000       3.37824000      -0.17879300      -0.27988600       0.45367200
H        0.56427700       2.22163000       3.74586000      -0.27092500      -0.13473600      -0.07351920
H       -0.21732100       4.27899000       3.92574000       0.04848140       0.45868800       0.37817500
O        2.26796000       1.26186000       6.92784000       0.14154100       0.71268700      -0.15907500
H        3.61931000       2.15911000       7.47426000      -0.17550700       0.12497000      -0.11684000
H        1.49996000       1.63163000       7.34591000      -0.14728200       0.35194500       0.14253800
12
Lattice="4.497479 0.0 0.0 -2.2487394999999992 3.894931066987034 0.0 0.0 0.0 7.322382" Properties=species:S:1:pos:R:3:force:R:3 #=T CELL(abcABC):=T 4.49748=T 7.32238=T 90.00000=T 120.00000=T Step:=T 17700=T Bead:=T 0=T positionsangstrom=T cellangstrom=T Polarizability="75.4282102371706 -1.7357737475182 -0.105283368368956 -1.7369047924084 72.5487265390327 0.000660724436384791 -0.104575016537144 0.00375249272341366 65.7390725863953" energy=-8265.608566403327 pbc="T T T"
O       -0.10094000       2.41581000       0.38870700      -1.76480000      -0.21220900      -0.90616300