12
Lattice="4.497479 0.0 0.0 -2.2487394999999992 3.894931066987034 0.0 0.0 0.0 7.322382" Properties=species:S:1:pos:R:3:force:R:3 #=T CELL(abcABC):=T 4.49748=T 7.32238=T 90.00000=T 120.00000=T Step:=T 10100=T Bead:=T 0=T positionsangstrom=T cellangstrom=T Polarizability="77.4386031067699 -1.0942439469589 -0.594482300901944 -1.08811483355835 73.5360974681246 2.31049443205541 -0.583668856554758 2.30943543757378 60.3532498457977" energy=-8265.748261909963 pbc="T T T"
O       -0.29818800       2.83101000       0.44927700      -1.12161000       0.19320000       2.06305000
H       -0.06859010       2.75318000       1.43675000       1.94579000       0.76512100      -1.79979000
H       -0.45809500       4.50419000       0.04271720      -0.43492000       2.27503000      -0.20859800
O        2.38818000       1.10623000       3.99399000      -2.35497000      -0.97666500       1.71639000
H        3.77405000       1.89298000       3.60645000       2.28043000       2.52880000      -0.92814800
H        2.39898000       1.14839000       5.00162000       0.03179940      -1.32721000      -0.50028300
O        0.09857290       2.47178000       3.24851000      -0.36451300       4.01112000      -0.99664200
H        0.93483000       1.93237000       3.47295000       3.14343000      -3.15841000      -0.08525470
H        0.05259400       3.98556000       3.67045000      -2.94162000      -1.35228000       1.05816000
O        1.88728000       1.57264000       7.18568000       1.17819000      -2.60823000      -0.14797000
H        3.32957000       2.22855000       7.62116000      -0.87251300      -0.49627300      -0.68526200
H        0.98581900       2.05299000       7.37513000      -0.48950400       0.14578100       0.51434400
12
Lattice="4.497479 0.0 0.0 -2.2487394999999992 3.894931066987034 0.0 0.0 0.0 7.322382" Properties=species:S:1:pos:R:3:force:R:3 #=T CELL(abcABC):=T 4.49748=T 7.32238=T 90.00000=T 120.00000=T Step:=T 10300=T Bead:=T 0=T positionsangstrom=T cellangstrom=T Polarizability="68.899328676502 1.51567619651389 0.179240685205209 1.50367343442036 73.7726002410525 1.55783755949396 0.177732025834016 1.56018401251883 58.2063734265686" energy=-8265.829850772883 pbc="T T T"
O       -0.14887800       2.74386000       0.39983000       0.30904600       0.04976110      -2.36499000
H       -0.12051400       2.72200000       1.42546000       0.08368140      -0.19651200       1.42612000
H       -0.07154740       4.28420000      -0.04265440      -0.48242300      -0.66483500       0.59584000
O        2.08896000       1.23240000       4.02514000       2.23337000       0.27115800      -0.39769300
H        3.60247000       2.06592000       3.65944000      -0.64618800      -2.36132000       1.23007000
H        2.25649000       1.28235000       5.00178000      -1.05923000       0.87279800      -0.76694900
O       -0.11407300       2.60925000       3.37442000      -1.32132000       2.84642000      -0.39063000
H        0.72875200       2.10961000       3.66804000       0.05832910      -0.74904300       0.74265400
H        0.05179370       4.11997000       3.84684000       0.34878900      -0.77413200      -0.74528500
O        2.22916000       1.38919000       7.07715000       0.06875090       2.09949000       0.06455930
H        3.48745000       2.20598000       7.50126000      -0.82109100       0.19893300       0.48493900
H        1.34227000       1.81855000       7.18158000       1.22829000      -1.59271000       0.12137400
12
Lattice="4.497479 0.0 0.0 -2.2487394999999992 3.894931066987034 0.0 0.0 0.0 7.322382" Properties=species:S:1:pos:R:3:force:R:3 #=T CELL(abcABC):=T 4.49748=T 7.32238=T 90.00000=T 120.00000=T Step:=T 10500=T Bead:=T 0=T positionsangstrom=T cellangstrom=T Polarizability="70.8558157255479 -1.449998095443 0.829210765433287 -1.45801942822111 70.9471882225939 0.259299030884894 0.828458162731757 0.258487452785671 53.724913313511" energy=-8265.707829406283 pbc="T T T"
O       -0.10870700       2.58769000       0.42224600      -0.72519300      -1.02980000      -1.75076000
H       -0.16680000       2.69623000       1.37198000      -0.06732290       0.25941000       1.04937000
H       -0.01663920       4.19999000      -0.17272000       0.36206200      -1.02901000       0.79489500
O        2.00623000       1.37165000       4.03688000       0.81571000      -0.95735100      -2.67670000
H        3.47774000       2.23021000       3.54401000      -2.23244000      -0.01833730       0.60410200
H        2.14419000       1.47312000       4.99319000      -0.14228300       0.24915300       1.98877000
O       -0.19526700       2.71153000       3.35217000       1.70020000      -1.19436000      -0.20433900
H        0.62904100       2.21022000       3.68067000       0.65375200       1.18624000      -0.10461100
H       -0.18920700       4.25854000       3.82437000      -0.75696300       0.76712500       0.16800200
O        2.37410000       1.30401000       7.07794000       2.02144000      -0.32809600      -0.98253800
H        3.61142000       1.92764000       7.45069000       0.42512700       0.67069800       0.48772900
H        1.45113000       1.60970000       7.34805000      -2.05409000       1.42434000       0.62608400
12
Lattice="4.497479 0.0 0.0 -2.2487394999999992 3.894931066987034 0.0 0.0 0.0 7.322382" Properties=species:S:1:pos:R:3:force:R:3 #=T CELL(abcABC):=T 4.49748=T 7.32238=T 90.00000=T 120.00000=T Step:=T 10700=T Bead:=T 0=T positionsangstrom=T cellangstrom=T Polarizability="72.2629135509904 1.66504892351694 0.519719195339454 1.67539840504488 71.2062175749707 0.624775660523003 0.522501699310299 0.619914643105026 59.5866102175799" energy=-8265.878590380898 pbc="T T T"
O       -0.06854690       2.61200000       0.48007000       1.28776000      -0.11662600      -0.55584600
H       -0.08427190       2.55734000       1.46657000      -0.52629000      -0.37641600       0.30236400
H       -0.04595040       4.28940000      -0.06101790      -0.41402800       0.14791100      -0.28520000
O        2.11156000       1.34050000       4.04029000      -0.00349558      -0.70431800      -1.44784000
H        3.38413000       2.05908000       3.54296000      -0.42151300      -0.39451800       0.34800000
H        2.10294000       1.42698000       5.04555000       0.05378020       0.35967600       1.43006000
O       -0.26951400       2.66071000       3.39771000       0.54767600       0.06789660      -0.62769600
H        0.55673600       2.08470000       3.52988000      -0.30584400       0.32442300       0.83105200
H       -0.23419600       4.22711000       3.85589000       0.32743200       0.33714900      -0.25897400
O        2.31466000       1.36196000       6.96544000      -0.14944100       0.49447100       0.26557000
H        3.57227000       2.14232000       7.43364000      -0.85959500      -0.09065770       0.24065500
H        1.50182000       1.81409000       7.31768000       0.46355600      -0.04899100      -0.24214600
12
Lattice="4.497479 0.0 0.0 -2.2487394999999992 3.894931066987034 0.0 0.0 0.0 7.322382" Properties=species:S:1:pos:R:3:force:R:3 #=T CELL(abcABC):=T 4.49748=T 7.32238=T 90.00000=T 120.00000=T Step:=T 11000=T Bead:=T 0=T positionsangstrom=T cellangstrom=T Polarizability="70.7987888672152 -0.924742322542633 0.912203106778217 -0.930382981164534 67.8361880792326 1.27012476147823 0.911809477844008 1.26595809955728 58.1161453755629" energy=-8265.707295131939 pbc="T T T"
O       -0.30079100       2.57271000       0.53358800      -1.65383000      -0.71989500      -1.04885000
H       -0.37490500       2.55786000       1.55025000       0.24179000       0.17811000       0.84250900
H       -0.25547300       4.34644000      -0.05733910       0.10563900      -0.97959400       0.11446800
O        2.32028000       1.34225000       4.05660000       0.42751100      -0.26989000       0.14848600
H        3.84400000       2.01054000       3.74239000      -0.53670800       0.14298900       0.38509200
H        2.14094000       1.36800000       5.05986000      -0.93588600      -0.58848700      -0.95520500
O       -0.01018610       2.68629000       3.32953000      -0.06257820       0.92912400      -0.48074100
H        0.88250200       2.36629000       3.46685000       0.67647700      -0.60089200      -0.03930840
H       -0.06349170       4.27303000       3.73383000       0.48842600       0.36851400       0.95374700
O        2.07476000       1.35918000       6.95524000      -0.61588700       0.75367500       0.76944000
H        3.40850000       2.08814000       7.47121000       1.12797000       0.70338200      -0.21545400
H        1.23654000       1.82493000       7.29989000       0.73707700       0.08296370      -0.47418500
12
Lattice="4.497479 0.0 0.0 -2.2487394999999992 3.894931066987034 0.0 0.0 0.0 7.322382" Properties=species:S:1:pos:R:3:force:R:3 #=T CELL(abcABC):=T 4.49748=T 7.32238=T 90.00000=T 120.00000=T Step:=T 11200=T Bead:=T 0=T positionsangstrom=T cellangstrom=T Polarizability="69.031469029419 1.65342396251374 0.486139100677503 1.65301035563247 71.298518594343 1.27304165173724 0.484628727187 1.27228853440435 57.8373515860592" energy=-8265.89488574843 pbc="T T T"
O       -0.15612000       2.74368000       0.37916400      -0.48577100      -0.54561900      -0.65705900
H       -0.20212700       2.70640000       1.41928000      -0.05786440      -0.31572800       0.09606290
H       -0.09068550       4.42365000       0.01054060      -0.16595300      -2.60278000       0.58458600
O        2.22425000       1.16126000       4.10998000      -0.82563400       2.39505000      -1.22014000
H        3.53318000       2.01285000       3.66403000      -1.61006000      -1.06227000       0.56208700
H        2.23764000       1.20919000       5.09837000       0.10143400      -0.11499200       1.81161000
O       -0.18040300       2.60259000       3.39878000       2.11619000       1.69075000      -0.57058700
H        0.65456400       2.04817000       3.62367000       0.62476000      -0.30062700      -0.04402390
H       -0.05142020       4.08416000       3.78511000      -0.40084100      -2.46229000      -0.16855400
O        2.19108000       1.46392000       6.98628000      -0.77864700       2.14026000      -0.24689900
H        3.49422000       2.31751000       7.39592000       0.90536000       0.92846400      -0.14996100
H        1.32669000       1.85831000       7.28201000       0.57703400       0.24977700       0.00288178
12
Lattice="4.497479 0.0 0.0 -2.2487394999999992 3.894931066987034 0.0 0.0 0.0 7.322382" Properties=species:S:1:pos:R:3:force:R:3 #=T CELL(abcABC):=T 4.49748=T 7.32238=T 90.00000=T 120.00000=T Step:=T 11400=T Bead:=T 0=T positionsangstrom=T cellangstrom=T Polarizability="74.8722863553398 2.75335184300471 0.196486916750411 2.75092753918839 76.7737952790484 2.43337891016719 0.190441656059606 2.42573317710826 58.1754115096585" energy=-8265.694369139714 pbc="T T T"
O        0.06110320       2.70798000       0.29979100       0.94842900       0.22011200       1.88733000
H       -0.00254876       2.54349000       1.27301000       0.18949000       0.41590800      -1.10312000
H        0.13812900       4.29847000       0.05354710      -0.32419400      -0.79564300       0.43425500
O        1.97217000       1.23653000       4.13610000      -0.10841900       1.46679000      -1.48705000
H        3.29748000       2.23773000       3.71894000       0.72681400       0.27660300       0.20797200
H        2.09231000       1.23535000       5.11661000      -0.28897100      -0.33164700       0.73836000
O       -0.27423100       2.63594000       3.45986000       0.34324000      -1.13504000       0.12773300
H        0.50492400       2.14851000       3.85005000      -1.02442000       0.69213400      -0.22250700
H       -0.20938300       4.19790000       3.72538000       0.11540600      -0.98497200       0.30349100
O        2.30962000       1.38734000       6.97753000      -0.76986600       1.40075000       0.26585500
H        3.77957000       2.15330000       7.25691000      -0.87210400      -0.32643400      -0.93865600
H        1.46258000       1.90355000       7.29911000       1.06459000      -0.89855400      -0.21366700
12
Lattice="4.497479 0.0 0.0 -2.2487394999999992 3.894931066987034 0.0 0.0 0.0 7.322382" Properties=species:S:1:pos:R:3:force:R:3 #=T CELL(abcABC):=T 4.49748=T 7.32238=T 90.00000=T 120.00000=T Step:=T 11600=T Bead:=T 0=T positionsangstrom=T cellangstrom=T Polarizability="74.6239026738661 3.26709488869881 2.26092223813285 3.27430873217357 74.3039285163294 1.56808606185992 2.26617052548173 1.56050934335022 59.7391162861258" energy=-8265.680633118642 pbc="T T T"
O       -0.17134100       2.69425000       0.38934400       0.19421900      -0.63929000       0.86166800
H       -0.16672400       2.58964000       1.39706000      -0.21955500       0.45805700       0.08748420
H       -0.20300700       4.21670000      -0.00766914      -0.02956290      -0.64901900       0.27547900
O        2.17730000       1.26796000       4.10737000       0.34417500       0.66147100      -0.64200100
H        3.69848000       2.14106000       3.90255000       0.19252200       0.77331000       0.07710990
H        2.13186000       1.19890000       5.10369000      -0.01588730      -0.28583700       0.15662100
O       -0.08032830       2.71677000       3.34984000       0.74383900      -0.88353200       0.17234800
H        0.66999000       2.03612000       3.52847000      -0.74770500      -0.03976990      -0.20482800
H       -0.00895064       4.17755000       3.82683000      -0.66820700      -0.15171900       0.33517500
O        2.15253000       1.31689000       7.01308000      -1.20800000       2.00219000       0.09560120
H        3.47326000       2.14306000       7.48608000      -0.35279700      -0.01229130      -0.71372800
H        1.31726000       1.76967000       7.27311000       1.76696000      -1.23357000      -0.50093100
12
Lattice="4.497479 0.0 0.0 -2.2487394999999992 3.894931066987034 0.0 0.0 0.0 7.322382" Properties=species:S:1:pos:R:3:force:R:3 #=T CELL(abcABC):=T 4.49748=T 7.32238=T 90.00000=T 120.00000=T Step:=T 11900=T Bead:=T 0=T positionsangstrom=T cellangstrom=T Polarizability="74.0095913163283 -0.357464069825283 0.983921235207217 -0.37164622017887 70.3744960243881 1.94685090831703 0.980578102962293 1.96119368912177 57.406321762885" energy=-8265.65628916662 pbc="T T T"
O       -0.17632700       2.79830000       0.42528200       0.51246800       0.05493380      -1.01955000
H       -0.20781000       2.78947000       1.40464000      -0.08530150      -0.24481700       0.17286400
H       -0.05894230       4.62481000       0.10132700      -0.14239600      -1.04051000       0.46633600
O        2.19387000       1.04506000       4.08058000      -0.96576000      -0.73780100       0.31633200
H        3.72296000       1.81571000       3.62523000       0.45980900      -0.00333356       0.00911119
H        2.18668000       1.38534000       5.03896000       0.34025500       1.06950000       0.23723500
O       -0.07173590       2.44510000       3.40551000      -0.20725500      -0.79778100       0.91268200
H        0.78386500       1.92949000       3.55711000       0.00247215       0.44792300      -0.30848100
H       -0.04993710       3.88598000       4.00613000       0.35700200       0.26042400      -1.00366000
O        2.12015000       1.66831000       6.95753000      -0.25867300       0.75926900       0.79509200
H        3.50851000       2.33017000       7.41667000      -0.03310310       0.29675100       0.48464000
H        1.22074000       2.13220000       7.21281000       0.02048240      -0.06456220      -1.06260000
12
Lattice="4.497479 0.0 0.0 -2.2487394999999992 3.894931066987034 0.0 0.0 0.0 7.322382" Properties=species:S:1:pos:R:3:force:R:3 #=T CELL(abcABC):=T 4.49748=T 7.32238=T 90.00000=T 120.00000=T Step:=T 12100=T Bead:=T 0=T positionsangstrom=T cellangstrom=T Polarizability="72.2415787690977 4.08077865190957 2.0856915489333 4.08670068919386 73.1905776843137 0.760599183152268 2.07801804997024 0.761522635105234 56.786898560761" energy=-8265.627214301443 pbc="T T T"
O       -0.25705400       2.76401000       0.23118300      -0.88571700      -0.32620400       0.46110100
H       -0.31001900       2.87817000       1.19739000       0.34940500       0.29881600       0.27822300
H       -0.14278100       4.38423000      -0.18517300      -0.17136500      -0.07965060      -0.09406110
O        2.27269000       1.13874000       4.19055000      -0.70016200      -0.72436900      -0.65463900
H        3.56323000       2.13744000       3.76247000       0.15132900       0.09921390       0.81417800
H        2.17635000       1.30990000       5.19629000       0.39290200       0.13073300       0.38198400
O       -0.04644510       2.57963000       3.47529000       0.62775600       0.17360700      -0.66593600
H        0.65992300       1.86363000       3.75788000      -0.35933600      -0.20390200       0.24906200
H        0.17788300       4.07528000       3.90007000       0.09806560       0.31939800      -0.14042000
O        2.12069000       1.48104000       6.97513000      -0.08371820       0.61548700       0.47545100
H        3.34104000       2.26714000       7.43468000       0.25729000       0.02134000      -0.53287800
H        1.26066000       1.87186000       7.24782000       0.32355100      -0.32447000      -0.57206400
12
Lattice="4.497479 0.0 0.0 -2.2487394999999992 3.894931066987034 0.0 0.0 0.0 7.322382" Properties=species:S:1:pos:R:3:force:R:3 #=T CELL(abcABC):=T 4.49748=T 7.32238=T 90.00000=T 120.00000=T Step:=T 12300=T Bead:=T 0=T positionsangstrom=T cellangstrom=T Polarizability="69.0330694730548 1.18403207664139 1.20750841361319 1.1795833872672 71.1523693856868 1.36030031479906 1.20909869543698 1.36679073057527 60.4119901260458" energy=-8265.826714065437 pbc="T T T"
O       -0.27654200       2.72483000       0.45665000      -1.35715000       0.25420000       0.23340500
H       -0.20607500       2.79235000       1.44108000       0.53240100      -0.14093400      -0.07750580
H       -0.15563600       4.43159000      -0.06586760      -0.20462000       0.86030400      -0.20435100
O        2.26199000       1.18062000       4.12140000      -0.14389300      -1.56849000       1.88697000
H        3.72995000       2.06504000       3.66889000       0.26553100       0.09765160       0.13580700
H        2.19215000       1.37644000       5.13772000      -0.06446170      -0.27978700      -1.76962000
O        0.04667140       2.54824000       3.29635000      -0.58975800       0.64471000      -0.59453200
H        0.88313700       2.00247000       3.52822000       0.22108900      -0.17076900       0.34539100
H        0.08116300       4.10399000       3.85725000       0.24602300       1.10333000      -0.08346010
O        2.04539000       1.49301000       6.99783000       0.52083900      -0.73679800       0.56938700
H        3.28073000       2.40997000       7.56684000       0.33390800       0.19074800      -0.12031200
H        1.11708000       1.87125000       7.17616000       0.24009500      -0.25416500      -0.32118000
12
Lattice="4.497479 0.0 0.0 -2.2487394999999992 3.894931066987034 0.0 0.0 0.0 7.322382" Properties=species:S:1:pos:R:3:force:R:3 #=T CELL(abcABC):=T 4.49748=T 7.32238=T 90.00000=T 120.00000=T Step:=T 12500=T Bead:=T 0=T positionsangstrom=T cellangstrom=T Polarizability="74.0343471049281 -1.03619803612012 -0.105698411703554 -1.04195476520646 73.9791205873298 1.69299322928265 -0.101808924744185 1.7008270869804 63.711588578605" energy=-8265.789513059814 pbc="T T T"
O       -0.04662590       2.68286000       0.51916900       1.53871000       1.11583000       0.64634200
H        0.01853030       2.77907000       1.51536000      -0.40337100      -0.14173700      -0.60418000
H       -0.05609060       4.30144000       0.05825980       0.46746200       0.64052300      -0.26400400
O        2.11303000       1.33211000       4.11475000      -0.21528200      -0.83214000      -0.64621100
H        3.57100000       2.01660000       3.52688000      -0.74796900      -0.76107200       0.29850800
H        2.20340000       1.36235000       5.14864000      -0.08535560      -0.08833970       0.78497300
O       -0.14632100       2.59147000       3.18521000       2.12951000       0.72805900      -0.70430400
H        0.66207800       2.11527000       3.62093000      -1.25730000       0.40944300       0.03657330
H       -0.18722700       4.19429000       3.91550000       0.03382260       0.52425500       0.26219800
O        2.15156000       1.35838000       7.02811000      -1.59539000      -0.49048100       0.63788800
H        3.53368000       2.24594000       7.54476000      -0.73212200      -0.53141300       0.61472500
H        1.27031000       1.75049000       7.37646000       0.86728600      -0.57292800      -1.06251000
12
Lattice="4.497479 0.0 0.0 -2.2487394999999992 3.894931066987034 0.0 0.0 0.0 7.322382" Properties=species:S:1:pos:R:3:force:R:3 #=T CELL(abcABC):=T 4.49748=T 7.32238=T 90.00000=T 120.00000=T Step:=T 12800=T Bead:=T 0=T positionsangstrom=T cellangstrom=T Polarizability="72.4706951005608 -0.156291528428603 2.63233103786842 -0.162673620275243 69.585892544031 2.47384502510932 2.62077271818605 2.47336688670878 55.8503047542146" energy=-8265.648283668768 pbc="T T T"
O       -0.08702390       2.66746000       0.45663100       0.65024200       0.99290600       1.67866000
H       -0.19511200       2.70840000       1.44977000       0.92508500      -0.23767500      -0.97374800
H       -0.02004440       4.38415000      -0.07324820      -0.12202100       0.35335400      -0.63056800
O        2.05981000       1.25767000       4.09255000       1.03047000      -2.10352000      -0.35460400
H        3.57884000       2.08004000       3.73492000      -0.18227100       0.03392790       0.39943900
H        1.94375000       1.06098000       5.04670000      -0.73981500       0.22927900      -0.47506100
O       -0.18454700       2.62392000       3.45613000      -0.15631400       0.76098900      -0.47186600
H        0.61427900       2.15719000       3.75448000       0.46563500      -0.39493700      -0.20866600
H       -0.16764400       4.15488000       3.77098000      -0.76814200       1.56286000       0.88718400
O        2.29538000       1.43023000       6.86815000       0.27916400      -0.98667200       0.74365100
H        3.61619000       2.05217000       7.45137000      -1.58286000      -0.56053800      -0.81337600
H        1.45543000       1.93827000       7.15551000       0.20082500       0.35002000       0.21896100
12
Lattice="4.497479 0.0 0.0 -2.2487394999999992 3.894931066987034 0.0 0.0 0.0 7.322382" Properties=species:S:1:pos:R:3:force:R:3 #=T CELL(abcABC):=T 4.49748=T 7.32238=T 90.00000=T 120.00000=T Step:=T 13000=T Bead:=T 0=T positionsangstrom=T cellangstrom=T Polarizability="70.8986884177926 0.911235325529108 1.57377962331011 0.91803893274772 72.3392635899379 2.10362865680987 1.58064656425913 2.10364380216271 55.8558877170108" energy=-8265.668060436872 pbc="T T T"
O       -0.18562700       2.71050000       0.44426900       1.04161000       1.19185000       1.85352000
H       -0.27998300       2.65006000       1.41544000      -0.86008600      -0.37538500      -1.55058000
H       -0.17987600       4.34307000       0.05304690      -0.46438900       0.60914000      -0.48037600
O        2.24006000       1.23081000       4.06985000      -0.07654300      -1.65933000      -0.41124300
H        3.61542000       2.13653000       3.67243000      -0.52583100      -0.20973700      -0.25481100
H        2.35880000       1.32350000       5.01786000       0.10904100      -0.21066200       0.79423100
O       -0.07504990       2.66014000       3.26769000       1.51431000       0.23139200       0.86399300
H        0.73939300       1.99340000       3.44907000      -0.78858500       0.49507600      -0.86980500
H       -0.03630940       4.09224000       3.95577000      -0.09769450       1.47663000       0.06591970
O        2.09986000       1.37718000       7.08119000       1.57874000      -0.77799900       0.04802370
H        3.42138000       2.24676000       7.47867000      -0.64849500      -0.64616400      -0.12509100
H        1.25630000       1.76058000       7.41431000      -0.78208100      -0.12480400       0.06622330
12
Lattice="4.497479 0.0 0.0 -2.2487394999999992 3.894931066987034 0.0 0.0 0.0 7.322382" Properties=species:S:1:pos:R:3:force:R:3 #=T CELL(abcABC):=T 4.49748=T 7.32238=T 90.00000=T 120.00000=T Step:=T 13200=T Bead:=T 0=T positionsangstrom=T cellangstrom=T Polarizability="64.0174628020409 2.91118577697171 0.530666983915332 2.90411181476509 69.3791964479473 0.747737962695854 0.530529117261282 0.748613828099118 54.6695439361513" energy=-8265.581602783546 pbc="T T T"
O       -0.31317600       2.77321000       0.46229300      -0.51620300      -0.62074100      -1.61790000
H       -0.05117990       2.81065000       1.39160000      -0.46044400      -0.40468600       0.94706300
H       -0.26186700       4.40880000       0.01410410      -0.63782200       0.23067500       0.10611400
O        2.41933000       1.15968000       3.96071000      -0.98289700      -0.35453000       1.12622000
H        3.71114000       1.94650000       3.59722000       0.60141200       0.54548000      -0.11490100
H        2.14519000       1.29145000       4.89661000       0.34214300       0.44357500      -0.67422200
O        0.02426990       2.52159000       3.28974000       0.79368300      -0.93433100       1.25883000
H        0.90071000       2.11597000       3.45912000      -0.99305000       0.48753700      -1.13905000
H        0.15814600       4.04551000       3.74231000       0.22728100      -0.01725680      -0.29113700
O        1.94000000       1.50252000       7.17659000       1.45096000      -0.33639200      -0.36425600
H        3.30610000       2.34001000       7.59918000       0.76774300       0.61954100       0.65351900
H        1.12675000       1.93073000       7.33854000      -0.59280400       0.34112900       0.10971500
12
Lattice="4.497479 0.0 0.0 -2.2487394999999992 3.894931066987034 0.0 0.0 0.0 7.322382" Properties=species:S:1:pos:R:3:force:R:3 #=T CELL(abcABC):=T 4.49748=T 7.32238=T 90.00000=T 120.00000=T Step:=T 13400=T Bead:=T 0=T positionsangstrom=T cellangstrom=T Polarizability="74.2483361870367 -0.135912071922281 1.22671381403582 -0.143702564835551 76.1976409326769 0.868310029769041 1.22596686953366 0.875345169430968 57.5322733199562" energy=-8265.792124110245 pbc="T T T"
O       -0.17325800       2.68596000       0.43754800      -0.13158200       0.02934520       0.46966600
H       -0.06943710       2.78071000       1.41237000      -0.01748460       0.23047000       0.23516500
H       -0.24118100       4.35334000      -0.05515560       0.37170300      -0.34674100      -0.11653400
O        2.15845000       1.20765000       4.08606000      -0.44662400      -0.02671550      -0.01704370
H        3.63703000       2.05185000       3.65771000      -1.59450000      -1.25330000       0.64263200
H        2.11297000       1.31208000       5.07510000      -0.12920500      -0.35790600      -0.43652100
O        0.00650238       2.60291000       3.38718000       1.12081000       1.28986000      -0.73193100
H        0.83659300       2.13492000       3.67219000       0.65464000      -0.40585600       0.22897500
H       -0.03362560       4.04064000       3.86552000       0.39547900       0.74716900       0.23194700
O        2.08333000       1.47645000       6.95195000      -0.78124500       0.19695700       0.33904600
H        3.47225000       2.10042000       7.53527000      -0.07590940       0.12220000      -0.36690800
H        1.24747000       1.86216000       7.29774000       0.63391800      -0.22548000      -0.47849300
12
Lattice="4.497479 0.0 0.0 -2.2487394999999992 3.894931066987034 0.0 0.0 0.0 7.322382" Properties=species:S:1:pos:R:3:force:R:3 #=T CELL(abcABC):=T 4.49748=T 7.32238=T 90.00000=T 120.00000=T Step:=T 13700=T Bead:=T 0=T positionsangstrom=T cellangstrom=T Polarizability="71.0811191159693 -0.172575288085206 0.68161613699039 -0.163081320440275 73.0075325151828 2.54337528405143 0.681586974497583 2.53675853700819 56.827922159291" energy=-8265.664510097675 pbc="T T T"
O       -0.09220320       2.57455000       0.39553000      -0.88111800      -0.66567400      -0.00250890
H       -0.09485490       2.51751000       1.35898000       0.53618600      -0.01886980      -0.72211000
H       -0.15393600       4.21074000       0.07926030       0.29237000      -0.88173500       0.33651200
O        2.18017000       1.37401000       4.01902000       0.84075800      -1.07598000      -1.03286000
H        3.49032000       2.25998000       3.60015000       1.47945000       0.84048500       0.25121200
H        2.16145000       1.29351000       4.97563000      -0.17330700       0.24811600       0.84347000
O       -0.17495000       2.71282000       3.31749000      -0.92653100      -0.98602700       0.16166800
H        0.65290700       2.18789000       3.52527000      -0.52931300       0.36822500      -0.24622700
H       -0.23895000       4.30374000       3.57052000      -0.93546300       0.58191600       0.22388600
O        2.18249000       1.31411000       7.16150000       0.15225700       0.46949100      -0.24501600
H        3.54739000       2.01883000       7.59215000       0.46451000       0.65044600       0.38099900
H        1.27257000       1.80374000       7.26996000      -0.31979800       0.46961100       0.05097180
12
Lattice="4.497479 0.0 0.0 -2.2487394999999992 3.894931066987034 0.0 0.0 0.0 7.322382" Properties=species:S:1:pos:R:3:force:R:3 #=T CELL(abcABC):=T 4.49748=T 7.32238=T 90.00000=T 120.00000=T Step:=T 13900=T Bead:=T 0=T positionsangstrom=T cellangstrom=T Polarizability="71.9940458957682 2.7151803951468 -0.577016793502895 2.71182709488416 71.3250957410564 2.35517230734988 -0.578019012345107 2.35105346951904 57.6972354608337" energy=-8265.693955507963 pbc="T T T"
O       -0.05681570       2.43201000       0.28109000       0.42757500      -0.40181800      -0.46106900